<?xml version="1.0" encoding="ISO-8859-1"?>
<modeling>
 <generator>
  <i name="program" type="string">vasp </i>
  <i name="version" type="string">5.4.4.18Apr17-6-g9f103f2a35  </i>
  <i name="subversion" type="string">(build Feb  5 2022 00:56:52) complex            parallel </i>
  <i name="platform" type="string">LinuxGNU </i>
  <i name="date" type="string">2022 02 09 </i>
  <i name="time" type="string">15:11:06 </i>
 </generator>
 <incar>
  <i type="string" name="PREC">accurate</i>
  <i type="string" name="ALGO"> Fast</i>
  <i type="int" name="ISPIN">     2</i>
  <i type="int" name="ICHARG">     1</i>
  <i type="int" name="NELM">   200</i>
  <i type="int" name="NELMIN">     6</i>
  <i type="int" name="IBRION">     2</i>
  <i name="EDIFF">      0.00001000</i>
  <i type="int" name="NSW">    99</i>
  <i type="int" name="ISIF">     3</i>
  <i type="int" name="ISYM">     0</i>
  <i name="ENCUT">    520.00000000</i>
  <v name="MAGMOM">      5.00000000</v>
  <i type="string" name="LREAL"> Auto</i>
  <i type="int" name="ISMEAR">    -4</i>
  <i name="KSPACING">      0.50000000</i>
  <i type="logical" name="LWAVE"> F  </i>
  <i type="int" name="LORBIT">    11</i>
  <v type="int" name="KPOINT_BSE">    -1     0     0     0</v>
  <i type="int" name="NELM">   200</i>
 </incar>
 <structure name="primitive_cell" >
  <crystal>
   <varray name="basis" >
    <v>       2.31889200       0.00000000      -0.81985200 </v>
    <v>      -1.15944600       2.00822000      -0.81985200 </v>
    <v>       0.00000000       0.00000000       2.45955700 </v>
   </varray>
   <i name="volume">     11.45377644 </i>
   <varray name="rec_basis" >
    <v>       0.43124044       0.24897671      -0.00000000 </v>
    <v>      -0.00000000       0.49795341       0.00000000 </v>
    <v>       0.14374675       0.24897660       0.40657728 </v>
   </varray>
  </crystal>
  <varray name="positions" >
   <v>       0.00000000       0.00000000       0.00000000 </v>
  </varray>
 </structure>
 <varray name="primitive_index" >
  <v type="int" >        1 </v>
 </varray>
 <kpoints>
  <generation param="Gamma">
   <v type="int" name="divisions">       7        7        7 </v>
   <v name="usershift">      0.00000000       0.00000000       0.00000000 </v>
   <v name="genvec1">      0.14285714      -0.00000000       0.00000000 </v>
   <v name="genvec2">      0.00000000       0.14285714       0.00000000 </v>
   <v name="genvec3">      0.00000000      -0.00000000       0.14285714 </v>
   <v name="shift">      0.00000000       0.00000000       0.00000000 </v>
  </generation>
  <varray name="kpointlist" >
   <v>       0.00000000       0.00000000       0.00000000 </v>
   <v>       0.14285714       0.00000000       0.00000000 </v>
   <v>       0.28571429       0.00000000       0.00000000 </v>
   <v>       0.42857143       0.00000000       0.00000000 </v>
   <v>       0.00000000       0.14285714       0.00000000 </v>
   <v>       0.14285714       0.14285714       0.00000000 </v>
   <v>       0.28571429       0.14285714       0.00000000 </v>
   <v>       0.42857143       0.14285714       0.00000000 </v>
   <v>      -0.42857143       0.14285714       0.00000000 </v>
   <v>      -0.28571429       0.14285714       0.00000000 </v>
   <v>      -0.14285714       0.14285714       0.00000000 </v>
   <v>       0.00000000       0.28571429       0.00000000 </v>
   <v>       0.14285714       0.28571429       0.00000000 </v>
   <v>       0.28571429       0.28571429       0.00000000 </v>
   <v>       0.42857143       0.28571429       0.00000000 </v>
   <v>      -0.42857143       0.28571429       0.00000000 </v>
   <v>      -0.28571429       0.28571429       0.00000000 </v>
   <v>      -0.14285714       0.28571429       0.00000000 </v>
   <v>       0.00000000       0.42857143       0.00000000 </v>
   <v>       0.14285714       0.42857143       0.00000000 </v>
   <v>       0.28571429       0.42857143       0.00000000 </v>
   <v>       0.42857143       0.42857143       0.00000000 </v>
   <v>      -0.42857143       0.42857143       0.00000000 </v>
   <v>      -0.28571429       0.42857143       0.00000000 </v>
   <v>      -0.14285714       0.42857143       0.00000000 </v>
   <v>       0.00000000       0.00000000       0.14285714 </v>
   <v>       0.14285714       0.00000000       0.14285714 </v>
   <v>       0.28571429       0.00000000       0.14285714 </v>
   <v>       0.42857143       0.00000000       0.14285714 </v>
   <v>      -0.42857143       0.00000000       0.14285714 </v>
   <v>      -0.28571429       0.00000000       0.14285714 </v>
   <v>      -0.14285714       0.00000000       0.14285714 </v>
   <v>       0.00000000       0.14285714       0.14285714 </v>
   <v>       0.14285714       0.14285714       0.14285714 </v>
   <v>       0.28571429       0.14285714       0.14285714 </v>
   <v>       0.42857143       0.14285714       0.14285714 </v>
   <v>      -0.42857143       0.14285714       0.14285714 </v>
   <v>      -0.28571429       0.14285714       0.14285714 </v>
   <v>      -0.14285714       0.14285714       0.14285714 </v>
   <v>       0.00000000       0.28571429       0.14285714 </v>
   <v>       0.14285714       0.28571429       0.14285714 </v>
   <v>       0.28571429       0.28571429       0.14285714 </v>
   <v>       0.42857143       0.28571429       0.14285714 </v>
   <v>      -0.42857143       0.28571429       0.14285714 </v>
   <v>      -0.28571429       0.28571429       0.14285714 </v>
   <v>      -0.14285714       0.28571429       0.14285714 </v>
   <v>       0.00000000       0.42857143       0.14285714 </v>
   <v>       0.14285714       0.42857143       0.14285714 </v>
   <v>       0.28571429       0.42857143       0.14285714 </v>
   <v>       0.42857143       0.42857143       0.14285714 </v>
   <v>      -0.42857143       0.42857143       0.14285714 </v>
   <v>      -0.28571429       0.42857143       0.14285714 </v>
   <v>      -0.14285714       0.42857143       0.14285714 </v>
   <v>       0.00000000      -0.42857143       0.14285714 </v>
   <v>       0.14285714      -0.42857143       0.14285714 </v>
   <v>       0.28571429      -0.42857143       0.14285714 </v>
   <v>       0.42857143      -0.42857143       0.14285714 </v>
   <v>      -0.42857143      -0.42857143       0.14285714 </v>
   <v>      -0.28571429      -0.42857143       0.14285714 </v>
   <v>      -0.14285714      -0.42857143       0.14285714 </v>
   <v>       0.00000000      -0.28571429       0.14285714 </v>
   <v>       0.14285714      -0.28571429       0.14285714 </v>
   <v>       0.28571429      -0.28571429       0.14285714 </v>
   <v>       0.42857143      -0.28571429       0.14285714 </v>
   <v>      -0.42857143      -0.28571429       0.14285714 </v>
   <v>      -0.28571429      -0.28571429       0.14285714 </v>
   <v>      -0.14285714      -0.28571429       0.14285714 </v>
   <v>       0.00000000      -0.14285714       0.14285714 </v>
   <v>       0.14285714      -0.14285714       0.14285714 </v>
   <v>       0.28571429      -0.14285714       0.14285714 </v>
   <v>       0.42857143      -0.14285714       0.14285714 </v>
   <v>      -0.42857143      -0.14285714       0.14285714 </v>
   <v>      -0.28571429      -0.14285714       0.14285714 </v>
   <v>      -0.14285714      -0.14285714       0.14285714 </v>
   <v>       0.00000000       0.00000000       0.28571429 </v>
   <v>       0.14285714       0.00000000       0.28571429 </v>
   <v>       0.28571429       0.00000000       0.28571429 </v>
   <v>       0.42857143       0.00000000       0.28571429 </v>
   <v>      -0.42857143       0.00000000       0.28571429 </v>
   <v>      -0.28571429       0.00000000       0.28571429 </v>
   <v>      -0.14285714       0.00000000       0.28571429 </v>
   <v>       0.00000000       0.14285714       0.28571429 </v>
   <v>       0.14285714       0.14285714       0.28571429 </v>
   <v>       0.28571429       0.14285714       0.28571429 </v>
   <v>       0.42857143       0.14285714       0.28571429 </v>
   <v>      -0.42857143       0.14285714       0.28571429 </v>
   <v>      -0.28571429       0.14285714       0.28571429 </v>
   <v>      -0.14285714       0.14285714       0.28571429 </v>
   <v>       0.00000000       0.28571429       0.28571429 </v>
   <v>       0.14285714       0.28571429       0.28571429 </v>
   <v>       0.28571429       0.28571429       0.28571429 </v>
   <v>       0.42857143       0.28571429       0.28571429 </v>
   <v>      -0.42857143       0.28571429       0.28571429 </v>
   <v>      -0.28571429       0.28571429       0.28571429 </v>
   <v>      -0.14285714       0.28571429       0.28571429 </v>
   <v>       0.00000000       0.42857143       0.28571429 </v>
   <v>       0.14285714       0.42857143       0.28571429 </v>
   <v>       0.28571429       0.42857143       0.28571429 </v>
   <v>       0.42857143       0.42857143       0.28571429 </v>
   <v>      -0.42857143       0.42857143       0.28571429 </v>
   <v>      -0.28571429       0.42857143       0.28571429 </v>
   <v>      -0.14285714       0.42857143       0.28571429 </v>
   <v>       0.00000000      -0.42857143       0.28571429 </v>
   <v>       0.14285714      -0.42857143       0.28571429 </v>
   <v>       0.28571429      -0.42857143       0.28571429 </v>
   <v>       0.42857143      -0.42857143       0.28571429 </v>
   <v>      -0.42857143      -0.42857143       0.28571429 </v>
   <v>      -0.28571429      -0.42857143       0.28571429 </v>
   <v>      -0.14285714      -0.42857143       0.28571429 </v>
   <v>       0.00000000      -0.28571429       0.28571429 </v>
   <v>       0.14285714      -0.28571429       0.28571429 </v>
   <v>       0.28571429      -0.28571429       0.28571429 </v>
   <v>       0.42857143      -0.28571429       0.28571429 </v>
   <v>      -0.42857143      -0.28571429       0.28571429 </v>
   <v>      -0.28571429      -0.28571429       0.28571429 </v>
   <v>      -0.14285714      -0.28571429       0.28571429 </v>
   <v>       0.00000000      -0.14285714       0.28571429 </v>
   <v>       0.14285714      -0.14285714       0.28571429 </v>
   <v>       0.28571429      -0.14285714       0.28571429 </v>
   <v>       0.42857143      -0.14285714       0.28571429 </v>
   <v>      -0.42857143      -0.14285714       0.28571429 </v>
   <v>      -0.28571429      -0.14285714       0.28571429 </v>
   <v>      -0.14285714      -0.14285714       0.28571429 </v>
   <v>       0.00000000       0.00000000       0.42857143 </v>
   <v>       0.14285714       0.00000000       0.42857143 </v>
   <v>       0.28571429       0.00000000       0.42857143 </v>
   <v>       0.42857143       0.00000000       0.42857143 </v>
   <v>      -0.42857143       0.00000000       0.42857143 </v>
   <v>      -0.28571429       0.00000000       0.42857143 </v>
   <v>      -0.14285714       0.00000000       0.42857143 </v>
   <v>       0.00000000       0.14285714       0.42857143 </v>
   <v>       0.14285714       0.14285714       0.42857143 </v>
   <v>       0.28571429       0.14285714       0.42857143 </v>
   <v>       0.42857143       0.14285714       0.42857143 </v>
   <v>      -0.42857143       0.14285714       0.42857143 </v>
   <v>      -0.28571429       0.14285714       0.42857143 </v>
   <v>      -0.14285714       0.14285714       0.42857143 </v>
   <v>       0.00000000       0.28571429       0.42857143 </v>
   <v>       0.14285714       0.28571429       0.42857143 </v>
   <v>       0.28571429       0.28571429       0.42857143 </v>
   <v>       0.42857143       0.28571429       0.42857143 </v>
   <v>      -0.42857143       0.28571429       0.42857143 </v>
   <v>      -0.28571429       0.28571429       0.42857143 </v>
   <v>      -0.14285714       0.28571429       0.42857143 </v>
   <v>       0.00000000       0.42857143       0.42857143 </v>
   <v>       0.14285714       0.42857143       0.42857143 </v>
   <v>       0.28571429       0.42857143       0.42857143 </v>
   <v>       0.42857143       0.42857143       0.42857143 </v>
   <v>      -0.42857143       0.42857143       0.42857143 </v>
   <v>      -0.28571429       0.42857143       0.42857143 </v>
   <v>      -0.14285714       0.42857143       0.42857143 </v>
   <v>       0.00000000      -0.42857143       0.42857143 </v>
   <v>       0.14285714      -0.42857143       0.42857143 </v>
   <v>       0.28571429      -0.42857143       0.42857143 </v>
   <v>       0.42857143      -0.42857143       0.42857143 </v>
   <v>      -0.42857143      -0.42857143       0.42857143 </v>
   <v>      -0.28571429      -0.42857143       0.42857143 </v>
   <v>      -0.14285714      -0.42857143       0.42857143 </v>
   <v>       0.00000000      -0.28571429       0.42857143 </v>
   <v>       0.14285714      -0.28571429       0.42857143 </v>
   <v>       0.28571429      -0.28571429       0.42857143 </v>
   <v>       0.42857143      -0.28571429       0.42857143 </v>
   <v>      -0.42857143      -0.28571429       0.42857143 </v>
   <v>      -0.28571429      -0.28571429       0.42857143 </v>
   <v>      -0.14285714      -0.28571429       0.42857143 </v>
   <v>       0.00000000      -0.14285714       0.42857143 </v>
   <v>       0.14285714      -0.14285714       0.42857143 </v>
   <v>       0.28571429      -0.14285714       0.42857143 </v>
   <v>       0.42857143      -0.14285714       0.42857143 </v>
   <v>      -0.42857143      -0.14285714       0.42857143 </v>
   <v>      -0.28571429      -0.14285714       0.42857143 </v>
   <v>      -0.14285714      -0.14285714       0.42857143 </v>
  </varray>
  <varray name="weights" >
   <v>       0.00291545 </v>
   <v>       0.00583090 </v>
   <v>       0.00583090 </v>
   <v>       0.00583090 </v>
   <v>       0.00583090 </v>
   <v>       0.00583090 </v>
   <v>       0.00583090 </v>
   <v>       0.00583090 </v>
   <v>       0.00583090 </v>
   <v>       0.00583090 </v>
   <v>       0.00583090 </v>
   <v>       0.00583090 </v>
   <v>       0.00583090 </v>
   <v>       0.00583090 </v>
   <v>       0.00583090 </v>
   <v>       0.00583090 </v>
   <v>       0.00583090 </v>
   <v>       0.00583090 </v>
   <v>       0.00583090 </v>
   <v>       0.00583090 </v>
   <v>       0.00583090 </v>
   <v>       0.00583090 </v>
   <v>       0.00583090 </v>
   <v>       0.00583090 </v>
   <v>       0.00583090 </v>
   <v>       0.00583090 </v>
   <v>       0.00583090 </v>
   <v>       0.00583090 </v>
   <v>       0.00583090 </v>
   <v>       0.00583090 </v>
   <v>       0.00583090 </v>
   <v>       0.00583090 </v>
   <v>       0.00583090 </v>
   <v>       0.00583090 </v>
   <v>       0.00583090 </v>
   <v>       0.00583090 </v>
   <v>       0.00583090 </v>
   <v>       0.00583090 </v>
   <v>       0.00583090 </v>
   <v>       0.00583090 </v>
   <v>       0.00583090 </v>
   <v>       0.00583090 </v>
   <v>       0.00583090 </v>
   <v>       0.00583090 </v>
   <v>       0.00583090 </v>
   <v>       0.00583090 </v>
   <v>       0.00583090 </v>
   <v>       0.00583090 </v>
   <v>       0.00583090 </v>
   <v>       0.00583090 </v>
   <v>       0.00583090 </v>
   <v>       0.00583090 </v>
   <v>       0.00583090 </v>
   <v>       0.00583090 </v>
   <v>       0.00583090 </v>
   <v>       0.00583090 </v>
   <v>       0.00583090 </v>
   <v>       0.00583090 </v>
   <v>       0.00583090 </v>
   <v>       0.00583090 </v>
   <v>       0.00583090 </v>
   <v>       0.00583090 </v>
   <v>       0.00583090 </v>
   <v>       0.00583090 </v>
   <v>       0.00583090 </v>
   <v>       0.00583090 </v>
   <v>       0.00583090 </v>
   <v>       0.00583090 </v>
   <v>       0.00583090 </v>
   <v>       0.00583090 </v>
   <v>       0.00583090 </v>
   <v>       0.00583090 </v>
   <v>       0.00583090 </v>
   <v>       0.00583090 </v>
   <v>       0.00583090 </v>
   <v>       0.00583090 </v>
   <v>       0.00583090 </v>
   <v>       0.00583090 </v>
   <v>       0.00583090 </v>
   <v>       0.00583090 </v>
   <v>       0.00583090 </v>
   <v>       0.00583090 </v>
   <v>       0.00583090 </v>
   <v>       0.00583090 </v>
   <v>       0.00583090 </v>
   <v>       0.00583090 </v>
   <v>       0.00583090 </v>
   <v>       0.00583090 </v>
   <v>       0.00583090 </v>
   <v>       0.00583090 </v>
   <v>       0.00583090 </v>
   <v>       0.00583090 </v>
   <v>       0.00583090 </v>
   <v>       0.00583090 </v>
   <v>       0.00583090 </v>
   <v>       0.00583090 </v>
   <v>       0.00583090 </v>
   <v>       0.00583090 </v>
   <v>       0.00583090 </v>
   <v>       0.00583090 </v>
   <v>       0.00583090 </v>
   <v>       0.00583090 </v>
   <v>       0.00583090 </v>
   <v>       0.00583090 </v>
   <v>       0.00583090 </v>
   <v>       0.00583090 </v>
   <v>       0.00583090 </v>
   <v>       0.00583090 </v>
   <v>       0.00583090 </v>
   <v>       0.00583090 </v>
   <v>       0.00583090 </v>
   <v>       0.00583090 </v>
   <v>       0.00583090 </v>
   <v>       0.00583090 </v>
   <v>       0.00583090 </v>
   <v>       0.00583090 </v>
   <v>       0.00583090 </v>
   <v>       0.00583090 </v>
   <v>       0.00583090 </v>
   <v>       0.00583090 </v>
   <v>       0.00583090 </v>
   <v>       0.00583090 </v>
   <v>       0.00583090 </v>
   <v>       0.00583090 </v>
   <v>       0.00583090 </v>
   <v>       0.00583090 </v>
   <v>       0.00583090 </v>
   <v>       0.00583090 </v>
   <v>       0.00583090 </v>
   <v>       0.00583090 </v>
   <v>       0.00583090 </v>
   <v>       0.00583090 </v>
   <v>       0.00583090 </v>
   <v>       0.00583090 </v>
   <v>       0.00583090 </v>
   <v>       0.00583090 </v>
   <v>       0.00583090 </v>
   <v>       0.00583090 </v>
   <v>       0.00583090 </v>
   <v>       0.00583090 </v>
   <v>       0.00583090 </v>
   <v>       0.00583090 </v>
   <v>       0.00583090 </v>
   <v>       0.00583090 </v>
   <v>       0.00583090 </v>
   <v>       0.00583090 </v>
   <v>       0.00583090 </v>
   <v>       0.00583090 </v>
   <v>       0.00583090 </v>
   <v>       0.00583090 </v>
   <v>       0.00583090 </v>
   <v>       0.00583090 </v>
   <v>       0.00583090 </v>
   <v>       0.00583090 </v>
   <v>       0.00583090 </v>
   <v>       0.00583090 </v>
   <v>       0.00583090 </v>
   <v>       0.00583090 </v>
   <v>       0.00583090 </v>
   <v>       0.00583090 </v>
   <v>       0.00583090 </v>
   <v>       0.00583090 </v>
   <v>       0.00583090 </v>
   <v>       0.00583090 </v>
   <v>       0.00583090 </v>
   <v>       0.00583090 </v>
   <v>       0.00583090 </v>
   <v>       0.00583090 </v>
   <v>       0.00583090 </v>
   <v>       0.00583090 </v>
   <v>       0.00583090 </v>
   <v>       0.00583090 </v>
  </varray>
  <varray name="tetrahedronlist"  type="int" >
   <v type="int" >        2        1        2        6       26 </v>
   <v type="int" >        2        1        5        6       26 </v>
   <v type="int" >        2        5        6       26       33 </v>
   <v type="int" >        2        2        6       26       27 </v>
   <v type="int" >        2        6       26       27       34 </v>
   <v type="int" >        2        6       26       33       34 </v>
   <v type="int" >        2        2        3        7       27 </v>
   <v type="int" >        2        2        6        7       27 </v>
   <v type="int" >        2        6        7       27       34 </v>
   <v type="int" >        2        3        7       27       28 </v>
   <v type="int" >        2        7       27       28       35 </v>
   <v type="int" >        2        7       27       34       35 </v>
   <v type="int" >        2        3        4        8       28 </v>
   <v type="int" >        2        3        7        8       28 </v>
   <v type="int" >        2        7        8       28       35 </v>
   <v type="int" >        2        4        8       28       29 </v>
   <v type="int" >        2        8       28       29       36 </v>
   <v type="int" >        2        8       28       35       36 </v>
   <v type="int" >        2        4        4        9       29 </v>
   <v type="int" >        2        4        8        9       29 </v>
   <v type="int" >        2        8        9       29       36 </v>
   <v type="int" >        2        4        9       29       30 </v>
   <v type="int" >        2        9       29       30       37 </v>
   <v type="int" >        2        9       29       36       37 </v>
   <v type="int" >        2        3        4       10       30 </v>
   <v type="int" >        2        4        9       10       30 </v>
   <v type="int" >        2        9       10       30       37 </v>
   <v type="int" >        2        3       10       30       31 </v>
   <v type="int" >        2       10       30       31       38 </v>
   <v type="int" >        2       10       30       37       38 </v>
   <v type="int" >        2        2        3       11       31 </v>
   <v type="int" >        2        3       10       11       31 </v>
   <v type="int" >        2       10       11       31       38 </v>
   <v type="int" >        2        2       11       31       32 </v>
   <v type="int" >        2       11       31       32       39 </v>
   <v type="int" >        2       11       31       38       39 </v>
   <v type="int" >        2        1        2        5       32 </v>
   <v type="int" >        2        2        5       11       32 </v>
   <v type="int" >        2        5       11       32       39 </v>
   <v type="int" >        2        1        5       26       32 </v>
   <v type="int" >        2        5       26       32       33 </v>
   <v type="int" >        2        5       32       33       39 </v>
   <v type="int" >        2        5        6       13       33 </v>
   <v type="int" >        2        5       12       13       33 </v>
   <v type="int" >        2       12       13       33       40 </v>
   <v type="int" >        2        6       13       33       34 </v>
   <v type="int" >        2       13       33       34       41 </v>
   <v type="int" >        2       13       33       40       41 </v>
   <v type="int" >        2        6        7       14       34 </v>
   <v type="int" >        2        6       13       14       34 </v>
   <v type="int" >        2       13       14       34       41 </v>
   <v type="int" >        2        7       14       34       35 </v>
   <v type="int" >        2       14       34       35       42 </v>
   <v type="int" >        2       14       34       41       42 </v>
   <v type="int" >        2        7        8       15       35 </v>
   <v type="int" >        2        7       14       15       35 </v>
   <v type="int" >        2       14       15       35       42 </v>
   <v type="int" >        2        8       15       35       36 </v>
   <v type="int" >        2       15       35       36       43 </v>
   <v type="int" >        2       15       35       42       43 </v>
   <v type="int" >        2        8        9       16       36 </v>
   <v type="int" >        2        8       15       16       36 </v>
   <v type="int" >        2       15       16       36       43 </v>
   <v type="int" >        2        9       16       36       37 </v>
   <v type="int" >        2       16       36       37       44 </v>
   <v type="int" >        2       16       36       43       44 </v>
   <v type="int" >        2        9       10       17       37 </v>
   <v type="int" >        2        9       16       17       37 </v>
   <v type="int" >        2       16       17       37       44 </v>
   <v type="int" >        2       10       17       37       38 </v>
   <v type="int" >        2       17       37       38       45 </v>
   <v type="int" >        2       17       37       44       45 </v>
   <v type="int" >        2       10       11       18       38 </v>
   <v type="int" >        2       10       17       18       38 </v>
   <v type="int" >        2       17       18       38       45 </v>
   <v type="int" >        2       11       18       38       39 </v>
   <v type="int" >        2       18       38       39       46 </v>
   <v type="int" >        2       18       38       45       46 </v>
   <v type="int" >        2        5       11       12       39 </v>
   <v type="int" >        2       11       12       18       39 </v>
   <v type="int" >        2       12       18       39       46 </v>
   <v type="int" >        2        5       12       33       39 </v>
   <v type="int" >        2       12       33       39       40 </v>
   <v type="int" >        2       12       39       40       46 </v>
   <v type="int" >        2       12       13       20       40 </v>
   <v type="int" >        2       12       19       20       40 </v>
   <v type="int" >        2       19       20       40       47 </v>
   <v type="int" >        2       13       20       40       41 </v>
   <v type="int" >        2       20       40       41       48 </v>
   <v type="int" >        2       20       40       47       48 </v>
   <v type="int" >        2       13       14       21       41 </v>
   <v type="int" >        2       13       20       21       41 </v>
   <v type="int" >        2       20       21       41       48 </v>
   <v type="int" >        2       14       21       41       42 </v>
   <v type="int" >        2       21       41       42       49 </v>
   <v type="int" >        2       21       41       48       49 </v>
   <v type="int" >        2       14       15       22       42 </v>
   <v type="int" >        2       14       21       22       42 </v>
   <v type="int" >        2       21       22       42       49 </v>
   <v type="int" >        2       15       22       42       43 </v>
   <v type="int" >        2       22       42       43       50 </v>
   <v type="int" >        2       22       42       49       50 </v>
   <v type="int" >        2       15       16       23       43 </v>
   <v type="int" >        2       15       22       23       43 </v>
   <v type="int" >        2       22       23       43       50 </v>
   <v type="int" >        2       16       23       43       44 </v>
   <v type="int" >        2       23       43       44       51 </v>
   <v type="int" >        2       23       43       50       51 </v>
   <v type="int" >        2       16       17       24       44 </v>
   <v type="int" >        2       16       23       24       44 </v>
   <v type="int" >        2       23       24       44       51 </v>
   <v type="int" >        2       17       24       44       45 </v>
   <v type="int" >        2       24       44       45       52 </v>
   <v type="int" >        2       24       44       51       52 </v>
   <v type="int" >        2       17       18       25       45 </v>
   <v type="int" >        2       17       24       25       45 </v>
   <v type="int" >        2       24       25       45       52 </v>
   <v type="int" >        2       18       25       45       46 </v>
   <v type="int" >        2       25       45       46       53 </v>
   <v type="int" >        2       25       45       52       53 </v>
   <v type="int" >        2       12       18       19       46 </v>
   <v type="int" >        2       18       19       25       46 </v>
   <v type="int" >        2       19       25       46       53 </v>
   <v type="int" >        2       12       19       40       46 </v>
   <v type="int" >        2       19       40       46       47 </v>
   <v type="int" >        2       19       46       47       53 </v>
   <v type="int" >        2       19       20       25       47 </v>
   <v type="int" >        2       19       19       25       47 </v>
   <v type="int" >        2       19       25       47       54 </v>
   <v type="int" >        2       20       25       47       48 </v>
   <v type="int" >        2       25       47       48       55 </v>
   <v type="int" >        2       25       47       54       55 </v>
   <v type="int" >        2       20       21       24       48 </v>
   <v type="int" >        2       20       24       25       48 </v>
   <v type="int" >        2       24       25       48       55 </v>
   <v type="int" >        2       21       24       48       49 </v>
   <v type="int" >        2       24       48       49       56 </v>
   <v type="int" >        2       24       48       55       56 </v>
   <v type="int" >        2       21       22       23       49 </v>
   <v type="int" >        2       21       23       24       49 </v>
   <v type="int" >        2       23       24       49       56 </v>
   <v type="int" >        2       22       23       49       50 </v>
   <v type="int" >        2       23       49       50       57 </v>
   <v type="int" >        2       23       49       56       57 </v>
   <v type="int" >        4       22       22       23       50 </v>
   <v type="int" >        2       22       23       50       57 </v>
   <v type="int" >        2       22       23       50       51 </v>
   <v type="int" >        2       22       50       51       58 </v>
   <v type="int" >        2       22       50       57       58 </v>
   <v type="int" >        2       21       23       24       51 </v>
   <v type="int" >        2       21       22       23       51 </v>
   <v type="int" >        2       21       22       51       58 </v>
   <v type="int" >        2       21       24       51       52 </v>
   <v type="int" >        2       21       51       52       59 </v>
   <v type="int" >        2       21       51       58       59 </v>
   <v type="int" >        2       20       24       25       52 </v>
   <v type="int" >        2       20       21       24       52 </v>
   <v type="int" >        2       20       21       52       59 </v>
   <v type="int" >        2       20       25       52       53 </v>
   <v type="int" >        2       20       52       53       60 </v>
   <v type="int" >        2       20       52       59       60 </v>
   <v type="int" >        2       19       19       25       53 </v>
   <v type="int" >        2       19       20       25       53 </v>
   <v type="int" >        2       19       20       53       60 </v>
   <v type="int" >        2       19       19       47       53 </v>
   <v type="int" >        2       19       47       53       54 </v>
   <v type="int" >        2       19       53       54       60 </v>
   <v type="int" >        2       18       19       25       54 </v>
   <v type="int" >        2       12       18       19       54 </v>
   <v type="int" >        2       12       18       54       61 </v>
   <v type="int" >        2       18       25       54       55 </v>
   <v type="int" >        2       18       54       55       62 </v>
   <v type="int" >        2       18       54       61       62 </v>
   <v type="int" >        2       17       24       25       55 </v>
   <v type="int" >        2       17       18       25       55 </v>
   <v type="int" >        2       17       18       55       62 </v>
   <v type="int" >        2       17       24       55       56 </v>
   <v type="int" >        2       17       55       56       63 </v>
   <v type="int" >        2       17       55       62       63 </v>
   <v type="int" >        2       16       23       24       56 </v>
   <v type="int" >        2       16       17       24       56 </v>
   <v type="int" >        2       16       17       56       63 </v>
   <v type="int" >        2       16       23       56       57 </v>
   <v type="int" >        2       16       56       57       64 </v>
   <v type="int" >        2       16       56       63       64 </v>
   <v type="int" >        2       15       22       23       57 </v>
   <v type="int" >        2       15       16       23       57 </v>
   <v type="int" >        2       15       16       57       64 </v>
   <v type="int" >        2       15       22       57       58 </v>
   <v type="int" >        2       15       57       58       65 </v>
   <v type="int" >        2       15       57       64       65 </v>
   <v type="int" >        2       14       21       22       58 </v>
   <v type="int" >        2       14       15       22       58 </v>
   <v type="int" >        2       14       15       58       65 </v>
   <v type="int" >        2       14       21       58       59 </v>
   <v type="int" >        2       14       58       59       66 </v>
   <v type="int" >        2       14       58       65       66 </v>
   <v type="int" >        2       13       20       21       59 </v>
   <v type="int" >        2       13       14       21       59 </v>
   <v type="int" >        2       13       14       59       66 </v>
   <v type="int" >        2       13       20       59       60 </v>
   <v type="int" >        2       13       59       60       67 </v>
   <v type="int" >        2       13       59       66       67 </v>
   <v type="int" >        2       12       19       20       60 </v>
   <v type="int" >        2       12       13       20       60 </v>
   <v type="int" >        2       12       13       60       67 </v>
   <v type="int" >        2       12       19       54       60 </v>
   <v type="int" >        2       12       54       60       61 </v>
   <v type="int" >        2       12       60       61       67 </v>
   <v type="int" >        2       11       12       18       61 </v>
   <v type="int" >        2        5       11       12       61 </v>
   <v type="int" >        2        5       11       61       68 </v>
   <v type="int" >        2       11       18       61       62 </v>
   <v type="int" >        2       11       61       62       69 </v>
   <v type="int" >        2       11       61       68       69 </v>
   <v type="int" >        2       10       17       18       62 </v>
   <v type="int" >        2       10       11       18       62 </v>
   <v type="int" >        2       10       11       62       69 </v>
   <v type="int" >        2       10       17       62       63 </v>
   <v type="int" >        2       10       62       63       70 </v>
   <v type="int" >        2       10       62       69       70 </v>
   <v type="int" >        2        9       16       17       63 </v>
   <v type="int" >        2        9       10       17       63 </v>
   <v type="int" >        2        9       10       63       70 </v>
   <v type="int" >        2        9       16       63       64 </v>
   <v type="int" >        2        9       63       64       71 </v>
   <v type="int" >        2        9       63       70       71 </v>
   <v type="int" >        2        8       15       16       64 </v>
   <v type="int" >        2        8        9       16       64 </v>
   <v type="int" >        2        8        9       64       71 </v>
   <v type="int" >        2        8       15       64       65 </v>
   <v type="int" >        2        8       64       65       72 </v>
   <v type="int" >        2        8       64       71       72 </v>
   <v type="int" >        2        7       14       15       65 </v>
   <v type="int" >        2        7        8       15       65 </v>
   <v type="int" >        2        7        8       65       72 </v>
   <v type="int" >        2        7       14       65       66 </v>
   <v type="int" >        2        7       65       66       73 </v>
   <v type="int" >        2        7       65       72       73 </v>
   <v type="int" >        2        6       13       14       66 </v>
   <v type="int" >        2        6        7       14       66 </v>
   <v type="int" >        2        6        7       66       73 </v>
   <v type="int" >        2        6       13       66       67 </v>
   <v type="int" >        2        6       66       67       74 </v>
   <v type="int" >        2        6       66       73       74 </v>
   <v type="int" >        2        5       12       13       67 </v>
   <v type="int" >        2        5        6       13       67 </v>
   <v type="int" >        2        5        6       67       74 </v>
   <v type="int" >        2        5       12       61       67 </v>
   <v type="int" >        2        5       61       67       68 </v>
   <v type="int" >        2        5       67       68       74 </v>
   <v type="int" >        2        2        5       11       68 </v>
   <v type="int" >        2        1        2        5       68 </v>
   <v type="int" >        2        1        2       26       68 </v>
   <v type="int" >        2        2       11       68       69 </v>
   <v type="int" >        2        2       27       68       69 </v>
   <v type="int" >        2        2       26       27       68 </v>
   <v type="int" >        2        3       10       11       69 </v>
   <v type="int" >        2        2        3       11       69 </v>
   <v type="int" >        2        2        3       27       69 </v>
   <v type="int" >        2        3       10       69       70 </v>
   <v type="int" >        2        3       28       69       70 </v>
   <v type="int" >        2        3       27       28       69 </v>
   <v type="int" >        2        4        9       10       70 </v>
   <v type="int" >        2        3        4       10       70 </v>
   <v type="int" >        2        3        4       28       70 </v>
   <v type="int" >        2        4        9       70       71 </v>
   <v type="int" >        2        4       29       70       71 </v>
   <v type="int" >        2        4       28       29       70 </v>
   <v type="int" >        2        4        8        9       71 </v>
   <v type="int" >        2        4        4        9       71 </v>
   <v type="int" >        2        4        4       29       71 </v>
   <v type="int" >        2        4        8       71       72 </v>
   <v type="int" >        2        4       30       71       72 </v>
   <v type="int" >        2        4       29       30       71 </v>
   <v type="int" >        2        3        7        8       72 </v>
   <v type="int" >        2        3        4        8       72 </v>
   <v type="int" >        2        3        4       30       72 </v>
   <v type="int" >        2        3        7       72       73 </v>
   <v type="int" >        2        3       31       72       73 </v>
   <v type="int" >        2        3       30       31       72 </v>
   <v type="int" >        2        2        6        7       73 </v>
   <v type="int" >        2        2        3        7       73 </v>
   <v type="int" >        2        2        3       31       73 </v>
   <v type="int" >        2        2        6       73       74 </v>
   <v type="int" >        2        2       32       73       74 </v>
   <v type="int" >        2        2       31       32       73 </v>
   <v type="int" >        2        1        5        6       74 </v>
   <v type="int" >        2        1        2        6       74 </v>
   <v type="int" >        2        1        2       32       74 </v>
   <v type="int" >        2        1        5       68       74 </v>
   <v type="int" >        2        1       26       68       74 </v>
   <v type="int" >        2        1       26       32       74 </v>
   <v type="int" >        2       26       27       34       75 </v>
   <v type="int" >        2       26       33       34       75 </v>
   <v type="int" >        2       33       34       75       82 </v>
   <v type="int" >        2       27       34       75       76 </v>
   <v type="int" >        2       34       75       76       83 </v>
   <v type="int" >        2       34       75       82       83 </v>
   <v type="int" >        2       27       28       35       76 </v>
   <v type="int" >        2       27       34       35       76 </v>
   <v type="int" >        2       34       35       76       83 </v>
   <v type="int" >        2       28       35       76       77 </v>
   <v type="int" >        2       35       76       77       84 </v>
   <v type="int" >        2       35       76       83       84 </v>
   <v type="int" >        2       28       29       36       77 </v>
   <v type="int" >        2       28       35       36       77 </v>
   <v type="int" >        2       35       36       77       84 </v>
   <v type="int" >        2       29       36       77       78 </v>
   <v type="int" >        2       36       77       78       85 </v>
   <v type="int" >        2       36       77       84       85 </v>
   <v type="int" >        2       29       30       37       78 </v>
   <v type="int" >        2       29       36       37       78 </v>
   <v type="int" >        2       36       37       78       85 </v>
   <v type="int" >        2       30       37       78       79 </v>
   <v type="int" >        2       37       78       79       86 </v>
   <v type="int" >        2       37       78       85       86 </v>
   <v type="int" >        2       30       31       38       79 </v>
   <v type="int" >        2       30       37       38       79 </v>
   <v type="int" >        2       37       38       79       86 </v>
   <v type="int" >        2       31       38       79       80 </v>
   <v type="int" >        2       38       79       80       87 </v>
   <v type="int" >        2       38       79       86       87 </v>
   <v type="int" >        2       31       32       39       80 </v>
   <v type="int" >        2       31       38       39       80 </v>
   <v type="int" >        2       38       39       80       87 </v>
   <v type="int" >        2       32       39       80       81 </v>
   <v type="int" >        2       39       80       81       88 </v>
   <v type="int" >        2       39       80       87       88 </v>
   <v type="int" >        2       26       32       33       81 </v>
   <v type="int" >        2       32       33       39       81 </v>
   <v type="int" >        2       33       39       81       88 </v>
   <v type="int" >        2       26       33       75       81 </v>
   <v type="int" >        2       33       75       81       82 </v>
   <v type="int" >        2       33       81       82       88 </v>
   <v type="int" >        2       33       34       41       82 </v>
   <v type="int" >        2       33       40       41       82 </v>
   <v type="int" >        2       40       41       82       89 </v>
   <v type="int" >        2       34       41       82       83 </v>
   <v type="int" >        2       41       82       83       90 </v>
   <v type="int" >        2       41       82       89       90 </v>
   <v type="int" >        2       34       35       42       83 </v>
   <v type="int" >        2       34       41       42       83 </v>
   <v type="int" >        2       41       42       83       90 </v>
   <v type="int" >        2       35       42       83       84 </v>
   <v type="int" >        2       42       83       84       91 </v>
   <v type="int" >        2       42       83       90       91 </v>
   <v type="int" >        2       35       36       43       84 </v>
   <v type="int" >        2       35       42       43       84 </v>
   <v type="int" >        2       42       43       84       91 </v>
   <v type="int" >        2       36       43       84       85 </v>
   <v type="int" >        2       43       84       85       92 </v>
   <v type="int" >        2       43       84       91       92 </v>
   <v type="int" >        2       36       37       44       85 </v>
   <v type="int" >        2       36       43       44       85 </v>
   <v type="int" >        2       43       44       85       92 </v>
   <v type="int" >        2       37       44       85       86 </v>
   <v type="int" >        2       44       85       86       93 </v>
   <v type="int" >        2       44       85       92       93 </v>
   <v type="int" >        2       37       38       45       86 </v>
   <v type="int" >        2       37       44       45       86 </v>
   <v type="int" >        2       44       45       86       93 </v>
   <v type="int" >        2       38       45       86       87 </v>
   <v type="int" >        2       45       86       87       94 </v>
   <v type="int" >        2       45       86       93       94 </v>
   <v type="int" >        2       38       39       46       87 </v>
   <v type="int" >        2       38       45       46       87 </v>
   <v type="int" >        2       45       46       87       94 </v>
   <v type="int" >        2       39       46       87       88 </v>
   <v type="int" >        2       46       87       88       95 </v>
   <v type="int" >        2       46       87       94       95 </v>
   <v type="int" >        2       33       39       40       88 </v>
   <v type="int" >        2       39       40       46       88 </v>
   <v type="int" >        2       40       46       88       95 </v>
   <v type="int" >        2       33       40       82       88 </v>
   <v type="int" >        2       40       82       88       89 </v>
   <v type="int" >        2       40       88       89       95 </v>
   <v type="int" >        2       40       41       48       89 </v>
   <v type="int" >        2       40       47       48       89 </v>
   <v type="int" >        2       47       48       89       96 </v>
   <v type="int" >        2       41       48       89       90 </v>
   <v type="int" >        2       48       89       90       97 </v>
   <v type="int" >        2       48       89       96       97 </v>
   <v type="int" >        2       41       42       49       90 </v>
   <v type="int" >        2       41       48       49       90 </v>
   <v type="int" >        2       48       49       90       97 </v>
   <v type="int" >        2       42       49       90       91 </v>
   <v type="int" >        2       49       90       91       98 </v>
   <v type="int" >        2       49       90       97       98 </v>
   <v type="int" >        2       42       43       50       91 </v>
   <v type="int" >        2       42       49       50       91 </v>
   <v type="int" >        2       49       50       91       98 </v>
   <v type="int" >        2       43       50       91       92 </v>
   <v type="int" >        2       50       91       92       99 </v>
   <v type="int" >        2       50       91       98       99 </v>
   <v type="int" >        2       43       44       51       92 </v>
   <v type="int" >        2       43       50       51       92 </v>
   <v type="int" >        2       50       51       92       99 </v>
   <v type="int" >        2       44       51       92       93 </v>
   <v type="int" >        2       51       92       93      100 </v>
   <v type="int" >        2       51       92       99      100 </v>
   <v type="int" >        2       44       45       52       93 </v>
   <v type="int" >        2       44       51       52       93 </v>
   <v type="int" >        2       51       52       93      100 </v>
   <v type="int" >        2       45       52       93       94 </v>
   <v type="int" >        2       52       93       94      101 </v>
   <v type="int" >        2       52       93      100      101 </v>
   <v type="int" >        2       45       46       53       94 </v>
   <v type="int" >        2       45       52       53       94 </v>
   <v type="int" >        2       52       53       94      101 </v>
   <v type="int" >        2       46       53       94       95 </v>
   <v type="int" >        2       53       94       95      102 </v>
   <v type="int" >        2       53       94      101      102 </v>
   <v type="int" >        2       40       46       47       95 </v>
   <v type="int" >        2       46       47       53       95 </v>
   <v type="int" >        2       47       53       95      102 </v>
   <v type="int" >        2       40       47       89       95 </v>
   <v type="int" >        2       47       89       95       96 </v>
   <v type="int" >        2       47       95       96      102 </v>
   <v type="int" >        2       47       48       55       96 </v>
   <v type="int" >        2       47       54       55       96 </v>
   <v type="int" >        2       54       55       96      103 </v>
   <v type="int" >        2       48       55       96       97 </v>
   <v type="int" >        2       55       96       97      104 </v>
   <v type="int" >        2       55       96      103      104 </v>
   <v type="int" >        2       48       49       56       97 </v>
   <v type="int" >        2       48       55       56       97 </v>
   <v type="int" >        2       55       56       97      104 </v>
   <v type="int" >        2       49       56       97       98 </v>
   <v type="int" >        2       56       97       98      105 </v>
   <v type="int" >        2       56       97      104      105 </v>
   <v type="int" >        2       49       50       57       98 </v>
   <v type="int" >        2       49       56       57       98 </v>
   <v type="int" >        2       56       57       98      105 </v>
   <v type="int" >        2       50       57       98       99 </v>
   <v type="int" >        2       57       98       99      106 </v>
   <v type="int" >        2       57       98      105      106 </v>
   <v type="int" >        2       50       51       58       99 </v>
   <v type="int" >        2       50       57       58       99 </v>
   <v type="int" >        2       57       58       99      106 </v>
   <v type="int" >        2       51       58       99      100 </v>
   <v type="int" >        2       58       99      100      107 </v>
   <v type="int" >        2       58       99      106      107 </v>
   <v type="int" >        2       51       52       59      100 </v>
   <v type="int" >        2       51       58       59      100 </v>
   <v type="int" >        2       58       59      100      107 </v>
   <v type="int" >        2       52       59      100      101 </v>
   <v type="int" >        2       59      100      101      108 </v>
   <v type="int" >        2       59      100      107      108 </v>
   <v type="int" >        2       52       53       60      101 </v>
   <v type="int" >        2       52       59       60      101 </v>
   <v type="int" >        2       59       60      101      108 </v>
   <v type="int" >        2       53       60      101      102 </v>
   <v type="int" >        2       60      101      102      109 </v>
   <v type="int" >        2       60      101      108      109 </v>
   <v type="int" >        2       47       53       54      102 </v>
   <v type="int" >        2       53       54       60      102 </v>
   <v type="int" >        2       54       60      102      109 </v>
   <v type="int" >        2       47       54       96      102 </v>
   <v type="int" >        2       54       96      102      103 </v>
   <v type="int" >        2       54      102      103      109 </v>
   <v type="int" >        2       54       55       62      103 </v>
   <v type="int" >        2       54       61       62      103 </v>
   <v type="int" >        2       61       62      103      110 </v>
   <v type="int" >        2       55       62      103      104 </v>
   <v type="int" >        2       62      103      104      111 </v>
   <v type="int" >        2       62      103      110      111 </v>
   <v type="int" >        2       55       56       63      104 </v>
   <v type="int" >        2       55       62       63      104 </v>
   <v type="int" >        2       62       63      104      111 </v>
   <v type="int" >        2       56       63      104      105 </v>
   <v type="int" >        2       63      104      105      112 </v>
   <v type="int" >        2       63      104      111      112 </v>
   <v type="int" >        2       56       57       64      105 </v>
   <v type="int" >        2       56       63       64      105 </v>
   <v type="int" >        2       63       64      105      112 </v>
   <v type="int" >        2       57       64      105      106 </v>
   <v type="int" >        2       64      105      106      113 </v>
   <v type="int" >        2       64      105      112      113 </v>
   <v type="int" >        2       57       58       65      106 </v>
   <v type="int" >        2       57       64       65      106 </v>
   <v type="int" >        2       64       65      106      113 </v>
   <v type="int" >        2       58       65      106      107 </v>
   <v type="int" >        2       65      106      107      114 </v>
   <v type="int" >        2       65      106      113      114 </v>
   <v type="int" >        2       58       59       66      107 </v>
   <v type="int" >        2       58       65       66      107 </v>
   <v type="int" >        2       65       66      107      114 </v>
   <v type="int" >        2       59       66      107      108 </v>
   <v type="int" >        2       66      107      108      115 </v>
   <v type="int" >        2       66      107      114      115 </v>
   <v type="int" >        2       59       60       67      108 </v>
   <v type="int" >        2       59       66       67      108 </v>
   <v type="int" >        2       66       67      108      115 </v>
   <v type="int" >        2       60       67      108      109 </v>
   <v type="int" >        2       67      108      109      116 </v>
   <v type="int" >        2       67      108      115      116 </v>
   <v type="int" >        2       54       60       61      109 </v>
   <v type="int" >        2       60       61       67      109 </v>
   <v type="int" >        2       61       67      109      116 </v>
   <v type="int" >        2       54       61      103      109 </v>
   <v type="int" >        2       61      103      109      110 </v>
   <v type="int" >        2       61      109      110      116 </v>
   <v type="int" >        2       61       62       69      110 </v>
   <v type="int" >        2       61       68       69      110 </v>
   <v type="int" >        2       68       69      110      117 </v>
   <v type="int" >        2       62       69      110      111 </v>
   <v type="int" >        2       69      110      111      118 </v>
   <v type="int" >        2       69      110      117      118 </v>
   <v type="int" >        2       62       63       70      111 </v>
   <v type="int" >        2       62       69       70      111 </v>
   <v type="int" >        2       69       70      111      118 </v>
   <v type="int" >        2       63       70      111      112 </v>
   <v type="int" >        2       70      111      112      119 </v>
   <v type="int" >        2       70      111      118      119 </v>
   <v type="int" >        2       63       64       71      112 </v>
   <v type="int" >        2       63       70       71      112 </v>
   <v type="int" >        2       70       71      112      119 </v>
   <v type="int" >        2       64       71      112      113 </v>
   <v type="int" >        2       71      112      113      120 </v>
   <v type="int" >        2       71      112      119      120 </v>
   <v type="int" >        2       64       65       72      113 </v>
   <v type="int" >        2       64       71       72      113 </v>
   <v type="int" >        2       71       72      113      120 </v>
   <v type="int" >        2       65       72      113      114 </v>
   <v type="int" >        2       72      113      114      121 </v>
   <v type="int" >        2       72      113      120      121 </v>
   <v type="int" >        2       65       66       73      114 </v>
   <v type="int" >        2       65       72       73      114 </v>
   <v type="int" >        2       72       73      114      121 </v>
   <v type="int" >        2       66       73      114      115 </v>
   <v type="int" >        2       73      114      115      122 </v>
   <v type="int" >        2       73      114      121      122 </v>
   <v type="int" >        2       66       67       74      115 </v>
   <v type="int" >        2       66       73       74      115 </v>
   <v type="int" >        2       73       74      115      122 </v>
   <v type="int" >        2       67       74      115      116 </v>
   <v type="int" >        2       74      115      116      123 </v>
   <v type="int" >        2       74      115      122      123 </v>
   <v type="int" >        2       61       67       68      116 </v>
   <v type="int" >        2       67       68       74      116 </v>
   <v type="int" >        2       68       74      116      123 </v>
   <v type="int" >        2       61       68      110      116 </v>
   <v type="int" >        2       68      110      116      117 </v>
   <v type="int" >        2       68      116      117      123 </v>
   <v type="int" >        2       27       68       69      117 </v>
   <v type="int" >        2       26       27       68      117 </v>
   <v type="int" >        2       26       27       75      117 </v>
   <v type="int" >        2       27       69      117      118 </v>
   <v type="int" >        2       27       76      117      118 </v>
   <v type="int" >        2       27       75       76      117 </v>
   <v type="int" >        2       28       69       70      118 </v>
   <v type="int" >        2       27       28       69      118 </v>
   <v type="int" >        2       27       28       76      118 </v>
   <v type="int" >        2       28       70      118      119 </v>
   <v type="int" >        2       28       77      118      119 </v>
   <v type="int" >        2       28       76       77      118 </v>
   <v type="int" >        2       29       70       71      119 </v>
   <v type="int" >        2       28       29       70      119 </v>
   <v type="int" >        2       28       29       77      119 </v>
   <v type="int" >        2       29       71      119      120 </v>
   <v type="int" >        2       29       78      119      120 </v>
   <v type="int" >        2       29       77       78      119 </v>
   <v type="int" >        2       30       71       72      120 </v>
   <v type="int" >        2       29       30       71      120 </v>
   <v type="int" >        2       29       30       78      120 </v>
   <v type="int" >        2       30       72      120      121 </v>
   <v type="int" >        2       30       79      120      121 </v>
   <v type="int" >        2       30       78       79      120 </v>
   <v type="int" >        2       31       72       73      121 </v>
   <v type="int" >        2       30       31       72      121 </v>
   <v type="int" >        2       30       31       79      121 </v>
   <v type="int" >        2       31       73      121      122 </v>
   <v type="int" >        2       31       80      121      122 </v>
   <v type="int" >        2       31       79       80      121 </v>
   <v type="int" >        2       32       73       74      122 </v>
   <v type="int" >        2       31       32       73      122 </v>
   <v type="int" >        2       31       32       80      122 </v>
   <v type="int" >        2       32       74      122      123 </v>
   <v type="int" >        2       32       81      122      123 </v>
   <v type="int" >        2       32       80       81      122 </v>
   <v type="int" >        2       26       68       74      123 </v>
   <v type="int" >        2       26       32       74      123 </v>
   <v type="int" >        2       26       32       81      123 </v>
   <v type="int" >        2       26       68      117      123 </v>
   <v type="int" >        2       26       75      117      123 </v>
   <v type="int" >        2       26       75       81      123 </v>
   <v type="int" >        2       75       76       83      124 </v>
   <v type="int" >        2       75       82       83      124 </v>
   <v type="int" >        2       82       83      124      131 </v>
   <v type="int" >        2       76       83      124      125 </v>
   <v type="int" >        2       83      124      125      132 </v>
   <v type="int" >        2       83      124      131      132 </v>
   <v type="int" >        2       76       77       84      125 </v>
   <v type="int" >        2       76       83       84      125 </v>
   <v type="int" >        2       83       84      125      132 </v>
   <v type="int" >        2       77       84      125      126 </v>
   <v type="int" >        2       84      125      126      133 </v>
   <v type="int" >        2       84      125      132      133 </v>
   <v type="int" >        2       77       78       85      126 </v>
   <v type="int" >        2       77       84       85      126 </v>
   <v type="int" >        2       84       85      126      133 </v>
   <v type="int" >        2       78       85      126      127 </v>
   <v type="int" >        2       85      126      127      134 </v>
   <v type="int" >        2       85      126      133      134 </v>
   <v type="int" >        2       78       79       86      127 </v>
   <v type="int" >        2       78       85       86      127 </v>
   <v type="int" >        2       85       86      127      134 </v>
   <v type="int" >        2       79       86      127      128 </v>
   <v type="int" >        2       86      127      128      135 </v>
   <v type="int" >        2       86      127      134      135 </v>
   <v type="int" >        2       79       80       87      128 </v>
   <v type="int" >        2       79       86       87      128 </v>
   <v type="int" >        2       86       87      128      135 </v>
   <v type="int" >        2       80       87      128      129 </v>
   <v type="int" >        2       87      128      129      136 </v>
   <v type="int" >        2       87      128      135      136 </v>
   <v type="int" >        2       80       81       88      129 </v>
   <v type="int" >        2       80       87       88      129 </v>
   <v type="int" >        2       87       88      129      136 </v>
   <v type="int" >        2       81       88      129      130 </v>
   <v type="int" >        2       88      129      130      137 </v>
   <v type="int" >        2       88      129      136      137 </v>
   <v type="int" >        2       75       81       82      130 </v>
   <v type="int" >        2       81       82       88      130 </v>
   <v type="int" >        2       82       88      130      137 </v>
   <v type="int" >        2       75       82      124      130 </v>
   <v type="int" >        2       82      124      130      131 </v>
   <v type="int" >        2       82      130      131      137 </v>
   <v type="int" >        2       82       83       90      131 </v>
   <v type="int" >        2       82       89       90      131 </v>
   <v type="int" >        2       89       90      131      138 </v>
   <v type="int" >        2       83       90      131      132 </v>
   <v type="int" >        2       90      131      132      139 </v>
   <v type="int" >        2       90      131      138      139 </v>
   <v type="int" >        2       83       84       91      132 </v>
   <v type="int" >        2       83       90       91      132 </v>
   <v type="int" >        2       90       91      132      139 </v>
   <v type="int" >        2       84       91      132      133 </v>
   <v type="int" >        2       91      132      133      140 </v>
   <v type="int" >        2       91      132      139      140 </v>
   <v type="int" >        2       84       85       92      133 </v>
   <v type="int" >        2       84       91       92      133 </v>
   <v type="int" >        2       91       92      133      140 </v>
   <v type="int" >        2       85       92      133      134 </v>
   <v type="int" >        2       92      133      134      141 </v>
   <v type="int" >        2       92      133      140      141 </v>
   <v type="int" >        2       85       86       93      134 </v>
   <v type="int" >        2       85       92       93      134 </v>
   <v type="int" >        2       92       93      134      141 </v>
   <v type="int" >        2       86       93      134      135 </v>
   <v type="int" >        2       93      134      135      142 </v>
   <v type="int" >        2       93      134      141      142 </v>
   <v type="int" >        2       86       87       94      135 </v>
   <v type="int" >        2       86       93       94      135 </v>
   <v type="int" >        2       93       94      135      142 </v>
   <v type="int" >        2       87       94      135      136 </v>
   <v type="int" >        2       94      135      136      143 </v>
   <v type="int" >        2       94      135      142      143 </v>
   <v type="int" >        2       87       88       95      136 </v>
   <v type="int" >        2       87       94       95      136 </v>
   <v type="int" >        2       94       95      136      143 </v>
   <v type="int" >        2       88       95      136      137 </v>
   <v type="int" >        2       95      136      137      144 </v>
   <v type="int" >        2       95      136      143      144 </v>
   <v type="int" >        2       82       88       89      137 </v>
   <v type="int" >        2       88       89       95      137 </v>
   <v type="int" >        2       89       95      137      144 </v>
   <v type="int" >        2       82       89      131      137 </v>
   <v type="int" >        2       89      131      137      138 </v>
   <v type="int" >        2       89      137      138      144 </v>
   <v type="int" >        2       89       90       97      138 </v>
   <v type="int" >        2       89       96       97      138 </v>
   <v type="int" >        2       96       97      138      145 </v>
   <v type="int" >        2       90       97      138      139 </v>
   <v type="int" >        2       97      138      139      146 </v>
   <v type="int" >        2       97      138      145      146 </v>
   <v type="int" >        2       90       91       98      139 </v>
   <v type="int" >        2       90       97       98      139 </v>
   <v type="int" >        2       97       98      139      146 </v>
   <v type="int" >        2       91       98      139      140 </v>
   <v type="int" >        2       98      139      140      147 </v>
   <v type="int" >        2       98      139      146      147 </v>
   <v type="int" >        2       91       92       99      140 </v>
   <v type="int" >        2       91       98       99      140 </v>
   <v type="int" >        2       98       99      140      147 </v>
   <v type="int" >        2       92       99      140      141 </v>
   <v type="int" >        2       99      140      141      148 </v>
   <v type="int" >        2       99      140      147      148 </v>
   <v type="int" >        2       92       93      100      141 </v>
   <v type="int" >        2       92       99      100      141 </v>
   <v type="int" >        2       99      100      141      148 </v>
   <v type="int" >        2       93      100      141      142 </v>
   <v type="int" >        2      100      141      142      149 </v>
   <v type="int" >        2      100      141      148      149 </v>
   <v type="int" >        2       93       94      101      142 </v>
   <v type="int" >        2       93      100      101      142 </v>
   <v type="int" >        2      100      101      142      149 </v>
   <v type="int" >        2       94      101      142      143 </v>
   <v type="int" >        2      101      142      143      150 </v>
   <v type="int" >        2      101      142      149      150 </v>
   <v type="int" >        2       94       95      102      143 </v>
   <v type="int" >        2       94      101      102      143 </v>
   <v type="int" >        2      101      102      143      150 </v>
   <v type="int" >        2       95      102      143      144 </v>
   <v type="int" >        2      102      143      144      151 </v>
   <v type="int" >        2      102      143      150      151 </v>
   <v type="int" >        2       89       95       96      144 </v>
   <v type="int" >        2       95       96      102      144 </v>
   <v type="int" >        2       96      102      144      151 </v>
   <v type="int" >        2       89       96      138      144 </v>
   <v type="int" >        2       96      138      144      145 </v>
   <v type="int" >        2       96      144      145      151 </v>
   <v type="int" >        2       96       97      104      145 </v>
   <v type="int" >        2       96      103      104      145 </v>
   <v type="int" >        2      103      104      145      152 </v>
   <v type="int" >        2       97      104      145      146 </v>
   <v type="int" >        2      104      145      146      153 </v>
   <v type="int" >        2      104      145      152      153 </v>
   <v type="int" >        2       97       98      105      146 </v>
   <v type="int" >        2       97      104      105      146 </v>
   <v type="int" >        2      104      105      146      153 </v>
   <v type="int" >        2       98      105      146      147 </v>
   <v type="int" >        2      105      146      147      154 </v>
   <v type="int" >        2      105      146      153      154 </v>
   <v type="int" >        2       98       99      106      147 </v>
   <v type="int" >        2       98      105      106      147 </v>
   <v type="int" >        2      105      106      147      154 </v>
   <v type="int" >        2       99      106      147      148 </v>
   <v type="int" >        2      106      147      148      155 </v>
   <v type="int" >        2      106      147      154      155 </v>
   <v type="int" >        2       99      100      107      148 </v>
   <v type="int" >        2       99      106      107      148 </v>
   <v type="int" >        2      106      107      148      155 </v>
   <v type="int" >        2      100      107      148      149 </v>
   <v type="int" >        2      107      148      149      156 </v>
   <v type="int" >        2      107      148      155      156 </v>
   <v type="int" >        2      100      101      108      149 </v>
   <v type="int" >        2      100      107      108      149 </v>
   <v type="int" >        2      107      108      149      156 </v>
   <v type="int" >        2      101      108      149      150 </v>
   <v type="int" >        2      108      149      150      157 </v>
   <v type="int" >        2      108      149      156      157 </v>
   <v type="int" >        2      101      102      109      150 </v>
   <v type="int" >        2      101      108      109      150 </v>
   <v type="int" >        2      108      109      150      157 </v>
   <v type="int" >        2      102      109      150      151 </v>
   <v type="int" >        2      109      150      151      158 </v>
   <v type="int" >        2      109      150      157      158 </v>
   <v type="int" >        2       96      102      103      151 </v>
   <v type="int" >        2      102      103      109      151 </v>
   <v type="int" >        2      103      109      151      158 </v>
   <v type="int" >        2       96      103      145      151 </v>
   <v type="int" >        2      103      145      151      152 </v>
   <v type="int" >        2      103      151      152      158 </v>
   <v type="int" >        2      103      104      111      152 </v>
   <v type="int" >        2      103      110      111      152 </v>
   <v type="int" >        2      110      111      152      159 </v>
   <v type="int" >        2      104      111      152      153 </v>
   <v type="int" >        2      111      152      153      160 </v>
   <v type="int" >        2      111      152      159      160 </v>
   <v type="int" >        2      104      105      112      153 </v>
   <v type="int" >        2      104      111      112      153 </v>
   <v type="int" >        2      111      112      153      160 </v>
   <v type="int" >        2      105      112      153      154 </v>
   <v type="int" >        2      112      153      154      161 </v>
   <v type="int" >        2      112      153      160      161 </v>
   <v type="int" >        2      105      106      113      154 </v>
   <v type="int" >        2      105      112      113      154 </v>
   <v type="int" >        2      112      113      154      161 </v>
   <v type="int" >        2      106      113      154      155 </v>
   <v type="int" >        2      113      154      155      162 </v>
   <v type="int" >        2      113      154      161      162 </v>
   <v type="int" >        2      106      107      114      155 </v>
   <v type="int" >        2      106      113      114      155 </v>
   <v type="int" >        2      113      114      155      162 </v>
   <v type="int" >        2      107      114      155      156 </v>
   <v type="int" >        2      114      155      156      163 </v>
   <v type="int" >        2      114      155      162      163 </v>
   <v type="int" >        2      107      108      115      156 </v>
   <v type="int" >        2      107      114      115      156 </v>
   <v type="int" >        2      114      115      156      163 </v>
   <v type="int" >        2      108      115      156      157 </v>
   <v type="int" >        2      115      156      157      164 </v>
   <v type="int" >        2      115      156      163      164 </v>
   <v type="int" >        2      108      109      116      157 </v>
   <v type="int" >        2      108      115      116      157 </v>
   <v type="int" >        2      115      116      157      164 </v>
   <v type="int" >        2      109      116      157      158 </v>
   <v type="int" >        2      116      157      158      165 </v>
   <v type="int" >        2      116      157      164      165 </v>
   <v type="int" >        2      103      109      110      158 </v>
   <v type="int" >        2      109      110      116      158 </v>
   <v type="int" >        2      110      116      158      165 </v>
   <v type="int" >        2      103      110      152      158 </v>
   <v type="int" >        2      110      152      158      159 </v>
   <v type="int" >        2      110      158      159      165 </v>
   <v type="int" >        2      110      111      118      159 </v>
   <v type="int" >        2      110      117      118      159 </v>
   <v type="int" >        2      117      118      159      166 </v>
   <v type="int" >        2      111      118      159      160 </v>
   <v type="int" >        2      118      159      160      167 </v>
   <v type="int" >        2      118      159      166      167 </v>
   <v type="int" >        2      111      112      119      160 </v>
   <v type="int" >        2      111      118      119      160 </v>
   <v type="int" >        2      118      119      160      167 </v>
   <v type="int" >        2      112      119      160      161 </v>
   <v type="int" >        2      119      160      161      168 </v>
   <v type="int" >        2      119      160      167      168 </v>
   <v type="int" >        2      112      113      120      161 </v>
   <v type="int" >        2      112      119      120      161 </v>
   <v type="int" >        2      119      120      161      168 </v>
   <v type="int" >        2      113      120      161      162 </v>
   <v type="int" >        2      120      161      162      169 </v>
   <v type="int" >        2      120      161      168      169 </v>
   <v type="int" >        2      113      114      121      162 </v>
   <v type="int" >        2      113      120      121      162 </v>
   <v type="int" >        2      120      121      162      169 </v>
   <v type="int" >        2      114      121      162      163 </v>
   <v type="int" >        2      121      162      163      170 </v>
   <v type="int" >        2      121      162      169      170 </v>
   <v type="int" >        2      114      115      122      163 </v>
   <v type="int" >        2      114      121      122      163 </v>
   <v type="int" >        2      121      122      163      170 </v>
   <v type="int" >        2      115      122      163      164 </v>
   <v type="int" >        2      122      163      164      171 </v>
   <v type="int" >        2      122      163      170      171 </v>
   <v type="int" >        2      115      116      123      164 </v>
   <v type="int" >        2      115      122      123      164 </v>
   <v type="int" >        2      122      123      164      171 </v>
   <v type="int" >        2      116      123      164      165 </v>
   <v type="int" >        2      123      164      165      172 </v>
   <v type="int" >        2      123      164      171      172 </v>
   <v type="int" >        2      110      116      117      165 </v>
   <v type="int" >        2      116      117      123      165 </v>
   <v type="int" >        2      117      123      165      172 </v>
   <v type="int" >        2      110      117      159      165 </v>
   <v type="int" >        2      117      159      165      166 </v>
   <v type="int" >        2      117      165      166      172 </v>
   <v type="int" >        2       76      117      118      166 </v>
   <v type="int" >        2       75       76      117      166 </v>
   <v type="int" >        2       75       76      124      166 </v>
   <v type="int" >        2       76      118      166      167 </v>
   <v type="int" >        2       76      125      166      167 </v>
   <v type="int" >        2       76      124      125      166 </v>
   <v type="int" >        2       77      118      119      167 </v>
   <v type="int" >        2       76       77      118      167 </v>
   <v type="int" >        2       76       77      125      167 </v>
   <v type="int" >        2       77      119      167      168 </v>
   <v type="int" >        2       77      126      167      168 </v>
   <v type="int" >        2       77      125      126      167 </v>
   <v type="int" >        2       78      119      120      168 </v>
   <v type="int" >        2       77       78      119      168 </v>
   <v type="int" >        2       77       78      126      168 </v>
   <v type="int" >        2       78      120      168      169 </v>
   <v type="int" >        2       78      127      168      169 </v>
   <v type="int" >        2       78      126      127      168 </v>
   <v type="int" >        2       79      120      121      169 </v>
   <v type="int" >        2       78       79      120      169 </v>
   <v type="int" >        2       78       79      127      169 </v>
   <v type="int" >        2       79      121      169      170 </v>
   <v type="int" >        2       79      128      169      170 </v>
   <v type="int" >        2       79      127      128      169 </v>
   <v type="int" >        2       80      121      122      170 </v>
   <v type="int" >        2       79       80      121      170 </v>
   <v type="int" >        2       79       80      128      170 </v>
   <v type="int" >        2       80      122      170      171 </v>
   <v type="int" >        2       80      129      170      171 </v>
   <v type="int" >        2       80      128      129      170 </v>
   <v type="int" >        2       81      122      123      171 </v>
   <v type="int" >        2       80       81      122      171 </v>
   <v type="int" >        2       80       81      129      171 </v>
   <v type="int" >        2       81      123      171      172 </v>
   <v type="int" >        2       81      130      171      172 </v>
   <v type="int" >        2       81      129      130      171 </v>
   <v type="int" >        2       75      117      123      172 </v>
   <v type="int" >        2       75       81      123      172 </v>
   <v type="int" >        2       75       81      130      172 </v>
   <v type="int" >        2       75      117      166      172 </v>
   <v type="int" >        2       75      124      166      172 </v>
   <v type="int" >        2       75      124      130      172 </v>
   <v type="int" >        2      124      124      125      132 </v>
   <v type="int" >        2      124      124      131      132 </v>
   <v type="int" >        2      124      131      132      166 </v>
   <v type="int" >        2      124      125      130      132 </v>
   <v type="int" >        2      124      130      132      172 </v>
   <v type="int" >        2      124      132      166      172 </v>
   <v type="int" >        2      125      126      130      133 </v>
   <v type="int" >        2      125      130      132      133 </v>
   <v type="int" >        2      130      132      133      172 </v>
   <v type="int" >        2      126      129      130      133 </v>
[...]
       </set>
       <set comment="band 4">
        <r>  0.0000  0.0196  0.0000  0.0000  0.9356  0.0009  0.0002  0.0000  0.0004 </r>
       </set>
       <set comment="band 5">
        <r>  0.0133  0.0000  0.0000  0.0039  0.0002  0.0000  0.6515  0.3097  0.0006 </r>
       </set>
       <set comment="band 6">
        <r>  0.1023  0.0000  0.1332  0.0333  0.0000  0.0000  0.2003  0.2807  0.1765 </r>
       </set>
       <set comment="band 7">
        <r>  0.0007  0.3737  0.0007  0.0000  0.0138  0.4633  0.0002  0.0000  0.0003 </r>
       </set>
       <set comment="band 8">
        <r>  0.2604  0.0009  0.2755  0.0058  0.0001  0.0010  0.0869  0.0260  0.1475 </r>
       </set>
       <set comment="band 9">
        <r>  0.0014  0.1230  0.0014  0.0042  0.4533  0.1110  0.0002  0.0018  0.0001 </r>
       </set>
       <set comment="band 10">
        <r>  0.0420  0.0016  0.1050  0.2689  0.0065  0.0012  0.0154  0.0899  0.0130 </r>
       </set>
       <set comment="band 11">
        <r>  0.0531  0.0000  0.0212  0.0896  0.0001  0.0000  0.0006  0.5819  0.1355 </r>
       </set>
      </set>
      <set comment="kpoint 161">
       <set comment="band 1">
        <r>  0.0404  0.0004  0.0459  0.0719  0.0014  0.0880  0.0137  0.4373  0.1283 </r>
       </set>
       <set comment="band 2">
        <r>  0.0000  0.0165  0.0295  0.0003  0.1569  0.5682  0.0073  0.0334  0.0396 </r>
       </set>
       <set comment="band 3">
        <r>  0.0000  0.0196  0.0140  0.0063  0.1966  0.0948  0.0103  0.1997  0.4127 </r>
       </set>
       <set comment="band 4">
        <r>  0.0222  0.0150  0.0049  0.0141  0.4274  0.0239  0.2660  0.0015  0.1745 </r>
       </set>
       <set comment="band 5">
        <r>  0.0000  0.0014  0.0011  0.0006  0.1192  0.0581  0.6358  0.0567  0.1133 </r>
       </set>
       <set comment="band 6">
        <r>  0.1327  0.0212  0.1998  0.1347  0.0210  0.0007  0.0128  0.2638  0.0735 </r>
       </set>
       <set comment="band 7">
        <r>  0.1452  0.1888  0.1391  0.0524  0.0030  0.2115  0.0680  0.0018  0.0351 </r>
       </set>
       <set comment="band 8">
        <r>  0.0000  0.3041  0.2062  0.1027  0.0607  0.0278  0.0192  0.0358  0.0678 </r>
       </set>
       <set comment="band 9">
        <r>  0.1055  0.0001  0.0058  0.0061  0.2241  0.3183  0.0037  0.0486  0.0414 </r>
       </set>
       <set comment="band 10">
        <r>  0.0712  0.0632  0.0385  0.0284  0.0921  0.0725  0.0053  0.2389  0.0756 </r>
       </set>
       <set comment="band 11">
        <r>  0.1978  0.0366  0.0262  0.3076  0.0199  0.0011  0.0043  0.1279  0.1034 </r>
       </set>
      </set>
      <set comment="kpoint 162">
       <set comment="band 1">
        <r>  0.0000  0.0157  0.0043  0.0307  0.0030  0.0356  0.0014  0.5790  0.1765 </r>
       </set>
       <set comment="band 2">
        <r>  0.0000  0.0008  0.0404  0.0091  0.2601  0.4887  0.0104  0.0159  0.0212 </r>
       </set>
       <set comment="band 3">
        <r>  0.0243  0.0262  0.0047  0.0081  0.3892  0.1964  0.0963  0.0640  0.1362 </r>
       </set>
       <set comment="band 4">
        <r>  0.0000  0.0036  0.0019  0.0178  0.1526  0.0163  0.0629  0.1484  0.5728 </r>
       </set>
       <set comment="band 5">
        <r>  0.0000  0.0037  0.0188  0.0001  0.0670  0.1053  0.7609  0.0035  0.0175 </r>
       </set>
       <set comment="band 6">
        <r>  0.0004  0.0544  0.1280  0.3732  0.0297  0.1236  0.0147  0.1037  0.0039 </r>
       </set>
       <set comment="band 7">
        <r>  0.0005  0.1246  0.3794  0.0479  0.0612  0.0105  0.0460  0.1289  0.0287 </r>
       </set>
       <set comment="band 8">
        <r>  0.3042  0.2137  0.0243  0.0810  0.0698  0.0470  0.0246  0.0132  0.0261 </r>
       </set>
       <set comment="band 9">
        <r>  0.0004  0.0082  0.0256  0.0602  0.1938  0.3338  0.0031  0.0678  0.0852 </r>
       </set>
       <set comment="band 10">
        <r>  0.0000  0.0242  0.0590  0.0090  0.0314  0.1185  0.0070  0.3306  0.1967 </r>
       </set>
       <set comment="band 11">
        <r>  0.4039  0.2398  0.0400  0.0851  0.0083  0.0023  0.0009  0.0011  0.0008 </r>
       </set>
      </set>
      <set comment="kpoint 163">
       <set comment="band 1">
        <r>  0.0420  0.0477  0.0435  0.0222  0.0814  0.1651  0.0158  0.3633  0.0466 </r>
       </set>
       <set comment="band 2">
        <r>  0.0002  0.0016  0.0308  0.0148  0.1471  0.2955  0.0066  0.2987  0.0572 </r>
       </set>
       <set comment="band 3">
        <r>  0.0000  0.0001  0.0119  0.0252  0.5992  0.3004  0.0070  0.0024  0.0076 </r>
       </set>
       <set comment="band 4">
        <r>  0.0226  0.0268  0.0047  0.0021  0.0043  0.0010  0.2628  0.0224  0.6018 </r>
       </set>
       <set comment="band 5">
        <r>  0.0000  0.0000  0.0011  0.0021  0.0134  0.0076  0.6425  0.1072  0.2125 </r>
       </set>
       <set comment="band 6">
        <r>  0.1317  0.0585  0.2033  0.0996  0.0925  0.1843  0.0132  0.0787  0.0000 </r>
       </set>
       <set comment="band 7">
        <r>  0.1412  0.1736  0.1389  0.0702  0.0177  0.0355  0.0662  0.1769  0.0221 </r>
       </set>
       <set comment="band 8">
        <r>  0.0002  0.0000  0.2032  0.4120  0.1184  0.0592  0.0183  0.0019  0.0085 </r>
       </set>
       <set comment="band 9">
        <r>  0.0951  0.0031  0.0062  0.0016  0.0029  0.0103  0.0034  0.3624  0.2684 </r>
       </set>
       <set comment="band 10">
        <r>  0.0697  0.0692  0.0393  0.0201  0.1624  0.3110  0.0052  0.0002  0.0119 </r>
       </set>
       <set comment="band 11">
        <r>  0.2086  0.3360  0.0257  0.0131  0.0336  0.0895  0.0040  0.0459  0.0698 </r>
       </set>
      </set>
      <set comment="kpoint 164">
       <set comment="band 1">
        <r>  0.1882  0.0577  0.1261  0.0192  0.0081  0.2276  0.0833  0.0758  0.0027 </r>
       </set>
       <set comment="band 2">
        <r>  0.0000  0.0121  0.0000  0.0364  0.0006  0.2066  0.0000  0.6202  0.0019 </r>
       </set>
       <set comment="band 3">
        <r>  0.0003  0.0013  0.0531  0.0004  0.5684  0.0681  0.0299  0.0226  0.1897 </r>
       </set>
       <set comment="band 4">
        <r>  0.0000  0.0054  0.0000  0.0161  0.2340  0.0004  0.0000  0.0011  0.7012 </r>
       </set>
       <set comment="band 5">
        <r>  0.0145  0.0035  0.0001  0.0012  0.0012  0.2427  0.6347  0.0809  0.0004 </r>
       </set>
       <set comment="band 6">
        <r>  0.1029  0.0243  0.1322  0.0081  0.1281  0.2008  0.2206  0.0669  0.0427 </r>
       </set>
       <set comment="band 7">
        <r>  0.0000  0.0946  0.0000  0.2834  0.0035  0.1161  0.0000  0.3494  0.0111 </r>
       </set>
       <set comment="band 8">
        <r>  0.2515  0.0047  0.2740  0.0017  0.1151  0.0200  0.0835  0.0063  0.0382 </r>
       </set>
       <set comment="band 9">
        <r>  0.0000  0.0326  0.0000  0.0967  0.1153  0.0295  0.0000  0.0881  0.3455 </r>
       </set>
       <set comment="band 10">
        <r>  0.0407  0.2041  0.1110  0.0683  0.0148  0.0609  0.0157  0.0205  0.0051 </r>
       </set>
       <set comment="band 11">
        <r>  0.0574  0.0693  0.0191  0.0231  0.0846  0.4480  0.0008  0.1494  0.0281 </r>
       </set>
      </set>
      <set comment="kpoint 165">
       <set comment="band 1">
        <r>  0.3000  0.0153  0.1478  0.0016  0.0082  0.1726  0.1305  0.0063  0.0021 </r>
       </set>
       <set comment="band 2">
        <r>  0.0010  0.0043  0.0013  0.0249  0.0577  0.0013  0.0002  0.5191  0.3263 </r>
       </set>
       <set comment="band 3">
        <r>  0.0200  0.0530  0.0993  0.0088  0.2681  0.3249  0.0002  0.0663  0.0390 </r>
       </set>
       <set comment="band 4">
        <r>  0.0008  0.0016  0.0008  0.0007  0.3811  0.0380  0.0095  0.0992  0.4363 </r>
       </set>
       <set comment="band 5">
        <r>  0.0057  0.0012  0.0000  0.0000  0.1353  0.3563  0.1699  0.1681  0.1466 </r>
       </set>
       <set comment="band 6">
        <r>  0.0288  0.0053  0.0784  0.0001  0.1053  0.0143  0.6669  0.0441  0.0112 </r>
       </set>
       <set comment="band 7">
        <r>  0.1722  0.0745  0.0872  0.0728  0.0532  0.2004  0.0514  0.1208  0.0042 </r>
       </set>
       <set comment="band 8">
        <r>  0.0811  0.0010  0.0926  0.1918  0.0380  0.0001  0.0195  0.2121  0.0567 </r>
       </set>
       <set comment="band 9">
        <r>  0.0647  0.2773  0.2070  0.0072  0.0297  0.0756  0.0216  0.0048  0.0000 </r>
       </set>
       <set comment="band 10">
        <r>  0.0264  0.0122  0.0029  0.0136  0.0012  0.1434  0.0001  0.0144  0.4802 </r>
       </set>
       <set comment="band 11">
        <r>  0.0099  0.0002  0.0058  0.1185  0.2468  0.0915  0.0067  0.2041  0.0056 </r>
       </set>
      </set>
      <set comment="kpoint 166">
       <set comment="band 1">
        <r>  0.3020  0.0007  0.1455  0.0164  0.0069  0.0732  0.1320  0.1062  0.0041 </r>
       </set>
       <set comment="band 2">
        <r>  0.0003  0.0230  0.0000  0.0012  0.1313  0.3203  0.0002  0.1715  0.2930 </r>
       </set>
       <set comment="band 3">
        <r>  0.0200  0.0430  0.1042  0.0219  0.0138  0.3062  0.0000  0.1063  0.2563 </r>
       </set>
       <set comment="band 4">
        <r>  0.0006  0.0018  0.0008  0.0006  0.7816  0.1372  0.0093  0.0000  0.0369 </r>
       </set>
       <set comment="band 5">
        <r>  0.0056  0.0004  0.0000  0.0008  0.0186  0.0024  0.1731  0.5276  0.2553 </r>
       </set>
       <set comment="band 6">
        <r>  0.0274  0.0017  0.0793  0.0038  0.0060  0.0159  0.6610  0.0429  0.1166 </r>
       </set>
       <set comment="band 7">
        <r>  0.1766  0.1359  0.0882  0.0104  0.0292  0.2726  0.0536  0.0459  0.0264 </r>
       </set>
       <set comment="band 8">
        <r>  0.0862  0.1601  0.0995  0.0355  0.0124  0.1548  0.0212  0.0551  0.0752 </r>
       </set>
       <set comment="band 9">
        <r>  0.0589  0.0325  0.1982  0.2522  0.0087  0.0043  0.0204  0.0720  0.0235 </r>
       </set>
       <set comment="band 10">
        <r>  0.0265  0.0181  0.0034  0.0016  0.3241  0.0042  0.0000  0.1611  0.1571 </r>
       </set>
       <set comment="band 11">
        <r>  0.0016  0.1072  0.0034  0.0279  0.1062  0.0875  0.0027  0.1868  0.2070 </r>
       </set>
      </set>
      <set comment="kpoint 167">
       <set comment="band 1">
        <r>  0.1627  0.0001  0.0283  0.0493  0.0132  0.2816  0.1087  0.1902  0.0004 </r>
       </set>
       <set comment="band 2">
        <r>  0.0002  0.0158  0.0000  0.0054  0.1392  0.1466  0.0001  0.2686  0.3744 </r>
       </set>
       <set comment="band 3">
        <r>  0.0096  0.0514  0.1715  0.0181  0.0761  0.2592  0.0167  0.0428  0.1776 </r>
       </set>
       <set comment="band 4">
        <r>  0.0109  0.0036  0.0073  0.0002  0.5118  0.0541  0.1445  0.0292  0.1942 </r>
       </set>
       <set comment="band 5">
        <r>  0.0000  0.0015  0.0011  0.0005  0.1543  0.0731  0.6456  0.0380  0.0752 </r>
       </set>
       <set comment="band 6">
        <r>  0.0540  0.0437  0.1606  0.0381  0.0515  0.0086  0.0128  0.4071  0.1305 </r>
       </set>
       <set comment="band 7">
        <r>  0.2822  0.0726  0.0753  0.0063  0.0150  0.2679  0.1121  0.0283  0.0263 </r>
       </set>
       <set comment="band 8">
        <r>  0.0002  0.2721  0.1887  0.1019  0.0843  0.0323  0.0172  0.0581  0.1038 </r>
       </set>
       <set comment="band 9">
        <r>  0.0850  0.0298  0.0041  0.0963  0.0962  0.1420  0.0028  0.0142  0.0194 </r>
       </set>
       <set comment="band 10">
        <r>  0.0000  0.0862  0.0427  0.0592  0.1608  0.1342  0.0088  0.0674  0.0136 </r>
       </set>
       <set comment="band 11">
        <r>  0.0000  0.0837  0.0530  0.0231  0.1013  0.0617  0.0072  0.2199  0.4394 </r>
       </set>
      </set>
      <set comment="kpoint 168">
       <set comment="band 1">
        <r>  0.0517  0.0000  0.0063  0.0658  0.0001  0.4942  0.0878  0.1455  0.0048 </r>
       </set>
       <set comment="band 2">
        <r>  0.0001  0.0468  0.1241  0.0148  0.0932  0.0674  0.0473  0.3452  0.0926 </r>
       </set>
       <set comment="band 3">
        <r>  0.0235  0.0083  0.0104  0.0068  0.4238  0.0258  0.0230  0.2097  0.2022 </r>
       </set>
       <set comment="band 4">
        <r>  0.0109  0.0003  0.0031  0.0124  0.2548  0.0583  0.1614  0.0170  0.4434 </r>
       </set>
       <set comment="band 5">
        <r>  0.0000  0.0050  0.0137  0.0016  0.0685  0.1747  0.5273  0.0164  0.1744 </r>
       </set>
       <set comment="band 6">
        <r>  0.0001  0.1050  0.2891  0.0367  0.0973  0.0112  0.0908  0.1991  0.0333 </r>
       </set>
       <set comment="band 7">
        <r>  0.2790  0.0015  0.0161  0.1583  0.0157  0.2346  0.1026  0.0710  0.0041 </r>
       </set>
       <set comment="band 8">
        <r>  0.1886  0.1139  0.1071  0.1156  0.1201  0.0033  0.0008  0.1121  0.0485 </r>
       </set>
       <set comment="band 9">
        <r>  0.0197  0.1480  0.0658  0.0022  0.0966  0.1657  0.0076  0.0159  0.1097 </r>
       </set>
       <set comment="band 10">
        <r>  0.0000  0.0209  0.0593  0.0067  0.0242  0.1024  0.0101  0.2265  0.1430 </r>
       </set>
       <set comment="band 11">
        <r>  0.0031  0.2170  0.0253  0.1284  0.0084  0.1980  0.0038  0.0081  0.1781 </r>
       </set>
      </set>
      <set comment="kpoint 169">
       <set comment="band 1">
        <r>  0.0511  0.0467  0.0073  0.0169  0.0021  0.0007  0.0885  0.6410  0.0020 </r>
       </set>
       <set comment="band 2">
        <r>  0.0000  0.0000  0.1228  0.0615  0.1901  0.3948  0.0432  0.0059  0.0137 </r>
       </set>
       <set comment="band 3">
        <r>  0.0251  0.0003  0.0084  0.0147  0.4857  0.2385  0.0275  0.0077  0.1257 </r>
       </set>
       <set comment="band 4">
        <r>  0.0106  0.0078  0.0022  0.0052  0.1203  0.0565  0.1460  0.0184  0.5943 </r>
       </set>
       <set comment="band 5">
        <r>  0.0000  0.0000  0.0154  0.0075  0.0509  0.1044  0.5423  0.0885  0.1721 </r>
       </set>
       <set comment="band 6">
        <r>  0.0001  0.0000  0.2893  0.1454  0.0956  0.1893  0.0921  0.0183  0.0344 </r>
       </set>
       <set comment="band 7">
        <r>  0.2752  0.1313  0.0164  0.0265  0.0000  0.0002  0.1003  0.3081  0.0213 </r>
       </set>
       <set comment="band 8">
        <r>  0.1901  0.0158  0.1073  0.2155  0.1287  0.0658  0.0008  0.0477  0.0394 </r>
       </set>
       <set comment="band 9">
        <r>  0.0150  0.0200  0.0614  0.1274  0.0181  0.0077  0.0070  0.1683  0.1923 </r>
       </set>
       <set comment="band 10">
        <r>  0.0001  0.0010  0.0654  0.0257  0.1710  0.3245  0.0104  0.0012  0.0045 </r>
       </set>
       <set comment="band 11">
        <r>  0.0015  0.3017  0.0234  0.0566  0.1494  0.0933  0.0031  0.1212  0.0200 </r>
       </set>
      </set>
      <set comment="kpoint 170">
       <set comment="band 1">
        <r>  0.1609  0.0335  0.0285  0.0141  0.0061  0.0113  0.1075  0.4647  0.0071 </r>
       </set>
       <set comment="band 2">
        <r>  0.0000  0.0000  0.0032  0.0115  0.6065  0.3292  0.0005  0.0003  0.0015 </r>
       </set>
       <set comment="band 3">
        <r>  0.0104  0.0000  0.1632  0.0786  0.1606  0.2743  0.0142  0.1190  0.0012 </r>
       </set>
       <set comment="band 4">
        <r>  0.0117  0.0005  0.0070  0.0036  0.0025  0.0010  0.1395  0.0777  0.7124 </r>
       </set>
       <set comment="band 5">
        <r>  0.0000  0.0000  0.0010  0.0023  0.0015  0.0013  0.6550  0.1106  0.2178 </r>
       </set>
       <set comment="band 6">
        <r>  0.0545  0.0040  0.1637  0.0813  0.1775  0.3531  0.0146  0.0568  0.0007 </r>
       </set>
       <set comment="band 7">
        <r>  0.2781  0.0417  0.0756  0.0382  0.0065  0.0128  0.1084  0.2851  0.0373 </r>
       </set>
       <set comment="band 8">
        <r>  0.0043  0.0059  0.1736  0.3705  0.1764  0.0757  0.0142  0.0009  0.0222 </r>
       </set>
       <set comment="band 9">
        <r>  0.0757  0.1156  0.0169  0.0092  0.0024  0.0196  0.0049  0.1476  0.1036 </r>
       </set>
       <set comment="band 10">
        <r>  0.0001  0.1180  0.0504  0.0152  0.1282  0.1472  0.0101  0.0337  0.0777 </r>
       </set>
       <set comment="band 11">
        <r>  0.0018  0.0001  0.0470  0.1138  0.4759  0.3306  0.0043  0.0073  0.0024 </r>
       </set>
      </set>
      <set comment="kpoint 171">
       <set comment="band 1">
        <r>  0.3000  0.0094  0.1478  0.0076  0.0000  0.0193  0.1305  0.1596  0.0102 </r>
       </set>
       <set comment="band 2">
        <r>  0.0010  0.0108  0.0013  0.0185  0.3775  0.4116  0.0002  0.1090  0.0061 </r>
       </set>
       <set comment="band 3">
        <r>  0.0200  0.0012  0.0993  0.0606  0.1853  0.0039  0.0002  0.3871  0.1222 </r>
       </set>
       <set comment="band 4">
        <r>  0.0008  0.0000  0.0008  0.0023  0.0693  0.0307  0.0096  0.1066  0.7480 </r>
       </set>
       <set comment="band 5">
        <r>  0.0057  0.0002  0.0000  0.0011  0.2659  0.4272  0.1699  0.0972  0.0161 </r>
       </set>
       <set comment="band 6">
        <r>  0.0288  0.0009  0.0784  0.0045  0.0645  0.0584  0.6669  0.0000  0.0521 </r>
       </set>
       <set comment="band 7">
        <r>  0.1723  0.0094  0.0872  0.1378  0.0035  0.0059  0.0514  0.3152  0.0539 </r>
       </set>
       <set comment="band 8">
        <r>  0.0810  0.1319  0.0925  0.0608  0.0923  0.1623  0.0195  0.0499  0.0025 </r>
       </set>
       <set comment="band 9">
        <r>  0.0647  0.1133  0.2070  0.1711  0.0081  0.0389  0.0216  0.0415  0.0216 </r>
       </set>
       <set comment="band 10">
        <r>  0.0264  0.0021  0.0029  0.0237  0.3811  0.0858  0.0001  0.0718  0.1003 </r>
       </set>
       <set comment="band 11">
        <r>  0.0100  0.0927  0.0058  0.0258  0.0338  0.2945  0.0068  0.0014  0.2181 </r>
       </set>
      </set>
      <set comment="kpoint 172">
       <set comment="band 1">
        <r>  0.3755  0.0000  0.2337  0.0000  0.0000  0.0000  0.1429  0.0000  0.0000 </r>
       </set>
       <set comment="band 2">
        <r>  0.0000  0.0088  0.0000  0.0267  0.0877  0.1349  0.0000  0.4103  0.2667 </r>
       </set>
       <set comment="band 3">
        <r>  0.0000  0.0263  0.0000  0.0086  0.2565  0.4171  0.0000  0.1371  0.0843 </r>
       </set>
       <set comment="band 4">
        <r>  0.0000  0.0000  0.0000  0.0000  0.1524  0.0908  0.0000  0.2735  0.4590 </r>
       </set>
       <set comment="band 5">
        <r>  0.0000  0.0000  0.0000  0.0000  0.4677  0.2657  0.0002  0.0882  0.1553 </r>
       </set>
       <set comment="band 6">
        <r>  0.0265  0.0000  0.0781  0.0000  0.0000  0.0001  0.8534  0.0001  0.0000 </r>
       </set>
       <set comment="band 7">
        <r>  0.0011  0.2066  0.0011  0.0702  0.0763  0.2654  0.0003  0.0902  0.0259 </r>
       </set>
       <set comment="band 8">
        <r>  0.0000  0.0709  0.0000  0.2088  0.0248  0.0920  0.0000  0.2709  0.0730 </r>
       </set>
       <set comment="band 9">
        <r>  0.3541  0.0004  0.4056  0.0001  0.0004  0.0005  0.0736  0.0002  0.0001 </r>
       </set>
       <set comment="band 10">
        <r>  0.0000  0.0002  0.0000  0.0006  0.0000  0.0002  0.0000  0.0006  0.0000 </r>
       </set>
       <set comment="band 11">
        <r>  0.0000  0.0009  0.0000  0.0023  0.2241  0.0096  0.0000  0.0287  0.6530 </r>
       </set>
      </set>
     </set>
    </set>
   </array>
  </projected>
 </calculation>
 <structure name="finalpos" >
  <crystal>
   <varray name="basis" >
    <v>       2.31458828       0.01180113      -0.81701356 </v>
    <v>      -1.14699864       2.01043327      -0.81680013 </v>
    <v>       0.00037062       0.00090322       2.45207881 </v>
   </varray>
   <i name="volume">     11.44667057 </i>
   <varray name="rec_basis" >
    <v>       0.43073473       0.24568090      -0.00015560 </v>
    <v>      -0.00259248       0.49585210      -0.00018226 </v>
    <v>       0.14265389       0.24702986       0.40770468 </v>
   </varray>
  </crystal>
  <varray name="positions" >
   <v>       0.00000001       0.00000011       0.00000016 </v>
  </varray>
 </structure>
</modeling>
