 vasp.5.4.4.18Apr17-6-g9f103f2a35 (build Feb  5 2022 00:56:52) complex           
 executed on             LinuxGNU date 2022.02.08  03:19:48
 running on   21 total cores
 each image running on    3 cores
 distrk:  each k-point on    3 cores,    1 groups
 distr:  one band on NCORES_PER_BAND=   3 cores,    1 groups


--------------------------------------------------------------------------------------------------------


 INCAR:
 POTCAR:    PAW_PBE Y_sv 25May2007                
 POTCAR:    PAW_PBE C 08Apr2002                   
 POTCAR:    PAW_PBE I 08Apr2002                   
 POTCAR:    PAW_PBE Y_sv 25May2007                
   VRHFIN =Y: 4s4p5s4d                                                          
   LEXCH  = PE                                                                  
   EATOM  =  1046.9140 eV,   76.9460 Ry                                         
                                                                                
   TITEL  = PAW_PBE Y_sv 25May2007                                              
   LULTRA =        F    use ultrasoft PP ?                                      
   IUNSCR =        1    unscreen: 0-lin 1-nonlin 2-no                           
   RPACOR =    2.200    partial core radius                                     
   POMASS =   88.906; ZVAL   =   11.000    mass and valenz                      
   RCORE  =    2.800    outmost cutoff radius                                   
   RWIGS  =    3.430; RWIGS  =    1.815    wigner-seitz radius (au A)           
   ENMAX  =  202.626; ENMIN  =  151.970 eV                                      
   RCLOC  =    2.212    cutoff for local pot                                    
   LCOR   =        T    correct aug charges                                     
   LPAW   =        T    paw PP                                                  
   EAUG   =  470.889                                                            
   DEXC   =    0.000                                                            
   RMAX   =    2.863    core radius for proj-oper                               
   RAUG   =    1.300    factor for augmentation sphere                          
   RDEP   =    2.926    radius for radial grids                                 
   RDEPT  =    2.280    core radius for aug-charge                              
                                                                                
   Atomic configuration                                                         
   11 entries                                                                   
     n  l   j            E        occ.                                          
     1  0  0.50    -16863.0720   2.0000                                         
     2  0  0.50     -2309.2881   2.0000                                         
     2  1  1.50     -2055.5536   6.0000                                         
     3  0  0.50      -367.1837   2.0000                                         
     3  1  1.50      -284.8912   6.0000                                         
     3  2  2.50      -149.4324  10.0000                                         
     4  0  0.50       -46.3345   2.0000                                         
     5  0  0.50        -3.6387   1.0000                                         
     4  1  1.50       -26.3769   6.0000                                         
     4  2  2.50        -1.6291   2.0000                                         
     4  3  2.50        -1.3606   0.0000                                         
   Description                                                                  
     l       E           TYP  RCUT    TYP  RCUT                                 
     0    -46.3344714     23  2.600                                             
     0     -3.6387002     23  2.700                                             
     1    -26.3769044     23  2.600                                             
     1    -27.7374870     23  2.600                                             
     2     -1.6291019     23  2.600                                             
     2      0.1354037     23  2.600                                             
     3     -1.3605826     23  2.800                                             
  local pseudopotential read in
  partial core-charges read in
  partial kinetic energy density read in
  atomic valenz-charges read in
  non local Contribution for L=           0  read in
    real space projection operators read in
  non local Contribution for L=           0  read in
    real space projection operators read in
  non local Contribution for L=           1  read in
    real space projection operators read in
  non local Contribution for L=           1  read in
    real space projection operators read in
  non local Contribution for L=           2  read in
    real space projection operators read in
  non local Contribution for L=           2  read in
    real space projection operators read in
  non local Contribution for L=           3  read in
    real space projection operators read in
    PAW grid and wavefunctions read in

   number of l-projection  operators is LMAX  =           7
   number of lm-projection operators is LMMAX =          25

 POTCAR:    PAW_PBE C 08Apr2002                   
   VRHFIN =C: s2p2                                                              
   LEXCH  = PE                                                                  
   EATOM  =   147.1560 eV,   10.8157 Ry                                         
                                                                                
   TITEL  = PAW_PBE C 08Apr2002                                                 
   LULTRA =        F    use ultrasoft PP ?                                      
   IUNSCR =        1    unscreen: 0-lin 1-nonlin 2-no                           
   RPACOR =    1.200    partial core radius                                     
   POMASS =   12.011; ZVAL   =    4.000    mass and valenz                      
   RCORE  =    1.500    outmost cutoff radius                                   
   RWIGS  =    1.630; RWIGS  =    0.863    wigner-seitz radius (au A)           
   ENMAX  =  400.000; ENMIN  =  300.000 eV                                      
   ICORE  =        2    local potential                                         
   LCOR   =        T    correct aug charges                                     
   LPAW   =        T    paw PP                                                  
   EAUG   =  644.873                                                            
   DEXC   =    0.000                                                            
   RMAX   =    1.529    core radius for proj-oper                               
   RAUG   =    1.300    factor for augmentation sphere                          
   RDEP   =    1.501    radius for radial grids                                 
   RDEPT  =    1.300    core radius for aug-charge                              
                                                                                
   Atomic configuration                                                         
    4 entries                                                                   
     n  l   j            E        occ.                                          
     1  0  0.50      -273.3789   2.0000                                         
     2  0  0.50       -13.7508   2.0000                                         
     2  1  0.50        -5.2854   2.0000                                         
     3  2  1.50        -5.4423   0.0000                                         
   Description                                                                  
     l       E           TYP  RCUT    TYP  RCUT                                 
     0    -13.7508458     23  1.200                                             
     0     -8.2022199     23  1.200                                             
     1     -5.2854383     23  1.500                                             
     1     34.0145650     23  1.500                                             
     2     -5.4423304      7  1.500                                             
  local pseudopotential read in
  partial core-charges read in
  partial kinetic energy density read in
  atomic valenz-charges read in
  non local Contribution for L=           0  read in
    real space projection operators read in
  non local Contribution for L=           0  read in
    real space projection operators read in
  non local Contribution for L=           1  read in
    real space projection operators read in
  non local Contribution for L=           1  read in
    real space projection operators read in
    PAW grid and wavefunctions read in

   number of l-projection  operators is LMAX  =           4
   number of lm-projection operators is LMMAX =           8

 POTCAR:    PAW_PBE I 08Apr2002                   
   VRHFIN =I : s2p5                                                             
   LEXCH  = PE                                                                  
   EATOM  =   315.8678 eV,   23.2156 Ry                                         
                                                                                
   TITEL  = PAW_PBE I 08Apr2002                                                 
   LULTRA =        F    use ultrasoft PP ?                                      
   IUNSCR =        1    unscreen: 0-lin 1-nonlin 2-no                           
   RPACOR =    2.200    partial core radius                                     
   POMASS =  126.904; ZVAL   =    7.000    mass and valenz                      
   RCORE  =    2.300    outmost cutoff radius                                   
   RWIGS  =    2.810; RWIGS  =    1.487    wigner-seitz radius (au A)           
   ENMAX  =  175.647; ENMIN  =  131.735 eV                                      
   ICORE  =        3    local potential                                         
   LCOR   =        T    correct aug charges                                     
   LPAW   =        T    paw PP                                                  
   EAUG   =  370.139                                                            
   DEXC   =    0.000                                                            
   RMAX   =    2.359    core radius for proj-oper                               
   RAUG   =    1.300    factor for augmentation sphere                          
   RDEP   =    2.392    radius for radial grids                                 
   RDEPT  =    2.170    core radius for aug-charge                              
                                                                                
   Atomic configuration                                                         
   13 entries                                                                   
     n  l   j            E        occ.                                          
     1  0  0.50    -32976.3739   2.0000                                         
     2  0  0.50     -5094.5933   2.0000                                         
     2  1  1.50     -4572.0131   6.0000                                         
     3  0  0.50     -1028.2813   2.0000                                         
     3  1  1.50      -859.0250   6.0000                                         
     3  2  2.50      -605.7620  10.0000                                         
     4  0  0.50      -180.5540   2.0000                                         
     4  1  1.50      -127.5306   6.0000                                         
     4  2  2.50       -50.2720  10.0000                                         
     5  0  0.50       -17.4058   2.0000                                         
     5  1  0.50        -7.0851   5.0000                                         
     5  2  1.50        -7.0750   0.0000                                         
     4  3  2.50        -7.0750   0.0000                                         
   Description                                                                  
     l       E           TYP  RCUT    TYP  RCUT                                 
     0    -17.4058016     23  2.300                                             
     0    -18.7663842     23  2.300                                             
     1     -7.0850686     23  2.300                                             
     1     -4.2150896     23  2.300                                             
     2     -7.0750295     23  2.300                                             
     3     -1.3605826     23  2.300                                             
  local pseudopotential read in
  partial core-charges read in
  partial kinetic energy density read in
  atomic valenz-charges read in
  non local Contribution for L=           0  read in
    real space projection operators read in
  non local Contribution for L=           0  read in
    real space projection operators read in
  non local Contribution for L=           1  read in
    real space projection operators read in
  non local Contribution for L=           1  read in
    real space projection operators read in
  non local Contribution for L=           2  read in
    real space projection operators read in
    PAW grid and wavefunctions read in

   number of l-projection  operators is LMAX  =           5
   number of lm-projection operators is LMMAX =          13

 Optimization of the real space projectors (new method)

 maximal supplied QI-value         = 13.42
 optimisation between [QCUT,QGAM] = [ 11.67, 23.35] = [ 38.16,152.62] Ry 
 Optimized for a Real-space Cutoff    1.68 Angstroem

   l    n(q)    QCUT    max X(q) W(low)/X(q) W(high)/X(q)  e(spline) 
   0     12    11.673    14.902    0.22E-04    0.24E-05    0.52E-07
   0     12    11.673     9.294    0.34E-04    0.58E-05    0.89E-07
   1     11    11.673    69.520    0.10E-04    0.47E-04    0.49E-06
   1     11    11.673    72.085    0.10E-04    0.48E-04    0.50E-06
   2     11    11.673    62.934    0.94E-04    0.14E-04    0.82E-06
   2     11    11.673    49.749    0.91E-04    0.13E-04    0.79E-06
   3     10    11.673     8.311    0.92E-04    0.21E-04    0.59E-06
 Optimization of the real space projectors (new method)

 maximal supplied QI-value         = 25.13
 optimisation between [QCUT,QGAM] = [ 11.56, 23.12] = [ 37.43,149.72] Ry 
 Optimized for a Real-space Cutoff    1.04 Angstroem

   l    n(q)    QCUT    max X(q) W(low)/X(q) W(high)/X(q)  e(spline) 
   0      7    11.561   115.676    0.20E-03    0.60E-03    0.21E-06
   0      7    11.561    87.132    0.20E-03    0.59E-03    0.21E-06
   1      7    11.561     4.429    0.23E-03    0.35E-03    0.15E-06
   1      7    11.561     2.733    0.18E-03    0.25E-03    0.12E-06
 Optimization of the real space projectors (new method)

 maximal supplied QI-value         = 16.25
 optimisation between [QCUT,QGAM] = [ 11.54, 23.24] = [ 37.28,151.24] Ry 
 Optimized for a Real-space Cutoff    1.40 Angstroem

   l    n(q)    QCUT    max X(q) W(low)/X(q) W(high)/X(q)  e(spline) 
   0     10    11.539   194.483    0.48E-04    0.89E-04    0.13E-06
   0     10    11.539   190.334    0.47E-04    0.86E-04    0.12E-06
   1      9    11.539   116.687    0.15E-03    0.73E-04    0.13E-06
   1      9    11.539    88.696    0.15E-03    0.72E-04    0.13E-06
   2      9    11.539     4.877    0.99E-05    0.58E-04    0.56E-07
  PAW_PBE Y_sv 25May2007                :
 energy of atom  1       EATOM=-1046.9140
 kinetic energy error for atom=    0.0008 (will be added to EATOM!!)
  PAW_PBE C 08Apr2002                   :
 energy of atom  2       EATOM= -147.1560
 kinetic energy error for atom=    0.0071 (will be added to EATOM!!)
  PAW_PBE I 08Apr2002                   :
 energy of atom  3       EATOM= -315.8678
 kinetic energy error for atom=    0.0009 (will be added to EATOM!!)


 POSCAR: Y8 C4 I7                                
  positions in direct lattice
  No initial velocities read in
 exchange correlation table for  LEXCH =        8
   RHO(1)=    0.500       N(1)  =     2000
   RHO(2)=  100.500       N(2)  =     4000

 VTST: version 3.2, (02/03/18)

 CHAIN: initializing optimizer
 
 OPT: Using VASP QUASI-newton optimizer
 CHAIN: Read ICHAIN            0
 CHAIN: Running the NEB
 NEB:          SPRING     -5.000000
 NEB:          LCLIMB      T
 NEB:     LTANGENTOLD      F
 NEB:           LDNEB      F
 NEB:        LDNEBORG      F
 NEB:        LNEBCELL      F
 NEB:          EFIRST      0.000000
 NEB:           ELAST      0.000000

 POSCAR: Y8 C4 I7                                
  positions in direct lattice
  No initial velocities read in

 POSCAR: Y8 C4 I7                                
  positions in direct lattice
  No initial velocities read in



--------------------------------------------------------------------------------------------------------


 ion  position               nearest neighbor table
   1  0.992  0.334  0.116-  11 2.60   9 2.61  12 2.61  14 3.12  16 3.12  13 3.12   5 3.36   8 3.43
                             6 3.52   2 3.84   4 3.85   3 3.87   4 3.88   3 3.91   2 3.93
   2  0.498  0.337  0.120-  10 2.61  12 2.61  11 2.62  15 3.09  13 3.10  14 3.10   5 3.38   6 3.39
                             7 3.43   1 3.84   4 3.85   3 3.87   4 3.91   1 3.93   3 3.93
   3  0.244  0.831  0.121-  11 2.61  10 2.64   9 2.68  16 3.07  13 3.07  15 3.11   5 3.29   8 3.40
                             7 3.42   4 3.86   2 3.87   1 3.87   1 3.91   4 3.91   2 3.93
   4  0.747  0.832  0.120-   9 2.59  10 2.61  12 2.65  15 3.08  16 3.09  14 3.13   8 3.38   7 3.41
                             6 3.50   2 3.85   1 3.85   3 3.86   1 3.88   2 3.91   3 3.91
   5  0.248  0.153  0.898-  10 2.48   9 2.51  11 2.59  17 2.95  18 3.25   3 3.29   1 3.36   2 3.38
                             6 3.72   8 3.76   7 3.77   7 3.99   8 4.04   6 4.06
   6  0.726  0.168  0.880-  10 2.50  12 2.55   9 2.65  19 3.07   2 3.39   4 3.50   1 3.52   5 3.72
                            17 3.73   7 3.79   7 3.83   8 3.91   8 4.01   5 4.06
   7  0.496  0.672  0.888-  12 2.54  10 2.56  11 2.59  18 3.14  19 3.18   4 3.41   3 3.42   2 3.43
                            17 3.46   5 3.77   6 3.79   6 3.83   8 3.87   8 3.90   5 3.99
   8  0.994  0.677  0.887-   9 2.50  12 2.57  11 2.61  18 3.07  19 3.18   4 3.38   3 3.40   1 3.43
                             5 3.76   7 3.87   7 3.90   6 3.91   6 4.01   5 4.04
   9  0.988  0.002  0.996-   8 2.50   5 2.51   4 2.59   1 2.61   6 2.65   3 2.68
  10  0.497  0.002  0.002-   5 2.48   6 2.50   7 2.56   4 2.61   2 2.61   3 2.64
  11  0.245  0.499  0.999-   5 2.59   7 2.59   1 2.60   8 2.61   3 2.61   2 2.62
  12  0.744  0.498  0.993-   7 2.54   6 2.55   8 2.57   2 2.61   1 2.61   4 2.65
  13  0.245  0.166  0.310-   3 3.07   2 3.10   1 3.12
  14  0.746  0.168  0.314-   2 3.10   1 3.12   4 3.13
  15  0.499  0.669  0.312-   4 3.08   2 3.09   3 3.11
  16  0.996  0.667  0.312-   3 3.07   4 3.09   1 3.12
  17  0.376  0.329  0.672-   5 2.95  18 3.45   7 3.46   6 3.73
  18  0.240  0.816  0.688-   8 3.07   7 3.14   5 3.25  17 3.45
  19  0.743  0.846  0.685-   6 3.07   7 3.18   8 3.18


IMPORTANT INFORMATION: All symmetrisations will be switched off!
NOSYMM: (Re-)initialisation of all symmetry stuff for point group C_1.




Automatic generation of k-mesh.
 generate k-points for:    2    2    2
Space group operators:
 irot       det(A)        alpha          n_x          n_y          n_z        tau_x        tau_y        tau_z
    1     1.000000     0.000000     1.000000     0.000000     0.000000     0.000000     0.000000     0.000000
 
 Subroutine IBZKPT returns following result:
 ===========================================
 
 Found      8 irreducible k-points:
 
 Following reciprocal coordinates:
            Coordinates               Weight
  0.000000  0.000000  0.000000      1.000000
  0.500000  0.000000  0.000000      1.000000
  0.000000  0.500000  0.000000      1.000000
  0.500000  0.500000  0.000000      1.000000
  0.000000  0.000000  0.500000      1.000000
  0.500000  0.000000  0.500000      1.000000
  0.000000  0.500000  0.500000      1.000000
  0.500000  0.500000  0.500000      1.000000
 
 Following cartesian coordinates:
            Coordinates               Weight
  0.000000  0.000000  0.000000      1.000000
  0.064345 -0.000000  0.000000      1.000000
 -0.000000  0.074299  0.000000      1.000000
  0.064345  0.074299  0.000000      1.000000
  0.000000  0.000000  0.045047      1.000000
  0.064345 -0.000000  0.045047      1.000000
 -0.000000  0.074299  0.045047      1.000000
  0.064345  0.074299  0.045047      1.000000
 


--------------------------------------------------------------------------------------------------------




 Dimension of arrays:
   k-points           NKPTS =      8   k-points in BZ     NKDIM =      8   number of bands    NBANDS=     97
   number of dos      NEDOS =    301   number of ions     NIONS =     19
   non local maximal  LDIM  =      7   non local SUM 2l+1 LMDIM =     25
   total plane-waves  NPLWV = 252000
   max r-space proj   IRMAX =   8612   max aug-charges    IRDMAX=  31495
   dimension x,y,z NGX =    60 NGY =   50 NGZ =   84
   dimension x,y,z NGXF=   120 NGYF=  100 NGZF=  168
   support grid    NGXF=   120 NGYF=  100 NGZF=  168
   ions per type =               8   4   7
   NGX,Y,Z   is equivalent  to a cutoff of  12.84, 12.35, 12.58 a.u.
   NGXF,Y,Z  is equivalent  to a cutoff of  25.67, 24.70, 25.16 a.u.

 SYSTEM =  unknown system                          
 POSCAR =  Y8 C4 I7                                

 Startparameter for this run:
   NWRITE =      2    write-flag & timer
   PREC   = accura    normal or accurate (medium, high low for compatibility)
   ISTART =      0    job   : 0-new  1-cont  2-samecut
   ICHARG =      1    charge: 1-file 2-atom 10-const
   ISPIN  =      2    spin polarized calculation?
   LNONCOLLINEAR =      F non collinear calculations
   LSORBIT =      F    spin-orbit coupling
   INIWAV =      1    electr: 0-lowe 1-rand  2-diag
   LASPH  =      F    aspherical Exc in radial PAW
   METAGGA=      F    non-selfconsistent MetaGGA calc.

 Electronic Relaxation 1
   ENCUT  =  520.0 eV  38.22 Ry    6.18 a.u.  14.45 12.51 20.64*2*pi/ulx,y,z
   ENINI  =  520.0     initial cutoff
   ENAUG  =  644.9 eV  augmentation charge cutoff
   NELM   =    200;   NELMIN=  4; NELMDL= -5     # of ELM steps 
   EDIFF  = 0.1E-04   stopping-criterion for ELM
   LREAL  =      T    real-space projection
   NLSPLINE    = F    spline interpolate recip. space projectors
   LCOMPAT=      F    compatible to vasp.4.4
   GGA_COMPAT  = T    GGA compatible to vasp.4.4-vasp.4.6
   LMAXPAW     = -100 max onsite density
   LMAXMIX     =    2 max onsite mixed and CHGCAR
   VOSKOWN=      0    Vosko Wilk Nusair interpolation
   ROPT   =   -0.00025  -0.00025  -0.00025
 Ionic relaxation
   EDIFFG = -.2E-01   stopping-criterion for IOM
   NSW    =     99    number of steps for IOM
   NBLOCK =      1;   KBLOCK =     99    inner block; outer block 
   IBRION =      1    ionic relax: 0-MD 1-quasi-New 2-CG
   NFREE  =      0    steps in history (QN), initial steepest desc. (CG)
   ISIF   =      2    stress and relaxation
   IWAVPR =     11    prediction:  0-non 1-charg 2-wave 3-comb
   ISYM   =      0    0-nonsym 1-usesym 2-fastsym
   LCORR  =      T    Harris-Foulkes like correction to forces

   POTIM  = 0.5000    time-step for ionic-motion
   TEIN   =    0.0    initial temperature
   TEBEG  =    0.0;   TEEND  =   0.0 temperature during run
   SMASS  =  -3.00    Nose mass-parameter (am)
   estimated Nose-frequenzy (Omega)   =  0.10E-29 period in steps =****** mass=  -0.138E-26a.u.
   SCALEE = 1.0000    scale energy and forces
   NPACO  =    256;   APACO  = 16.0  distance and # of slots for P.C.
   PSTRESS=    0.0 pullay stress

  Mass of Ions in am
   POMASS =  88.91 12.01126.90
  Ionic Valenz
   ZVAL   =  11.00  4.00  7.00
  Atomic Wigner-Seitz radii
   RWIGS  =  -1.00 -1.00 -1.00
  virtual crystal weights 
   VCA    =   1.00  1.00  1.00
   NELECT =     153.0000    total number of electrons
   NUPDOWN=      -1.0000    fix difference up-down

 DOS related values:
   EMIN   =  10.00;   EMAX   =-10.00  energy-range for DOS
   EFERMI =   0.00
   ISMEAR =     0;   SIGMA  =   0.20  broadening in eV -4-tet -1-fermi 0-gaus

 Electronic relaxation 2 (details)
   IALGO  =     38    algorithm
   LDIAG  =      T    sub-space diagonalisation (order eigenvalues)
   LSUBROT=      F    optimize rotation matrix (better conditioning)
   TURBO    =      0    0=normal 1=particle mesh
   IRESTART =      0    0=no restart 2=restart with 2 vectors
   NREBOOT  =      0    no. of reboots
   NMIN     =      0    reboot dimension
   EREF     =   0.00    reference energy to select bands
   IMIX   =      4    mixing-type and parameters
     AMIX     =   0.40;   BMIX     =  1.00
     AMIX_MAG =   1.60;   BMIX_MAG =  1.00
     AMIN     =   0.10
     WC   =   100.;   INIMIX=   1;  MIXPRE=   1;  MAXMIX= -45

 Intra band minimization:
   WEIMIN = 0.0010     energy-eigenvalue tresh-hold
   EBREAK =  0.26E-07  absolut break condition
   DEPER  =   0.30     relativ break condition  

   TIME   =   0.40     timestep for ELM

  volume/ion in A,a.u.               =      30.55       206.16
  Fermi-wavevector in a.u.,A,eV,Ry     =   1.049675  1.983598 14.991144  1.101818
  Thomas-Fermi vector in A             =   2.184647

 Write flags
   LWAVE        =      F    write WAVECAR
   LDOWNSAMPLE  =      F    k-point downsampling of WAVECAR
   LCHARG       =      T    write CHGCAR
   LVTOT        =      F    write LOCPOT, total local potential
   LVHAR        =      F    write LOCPOT, Hartree potential only
   LELF         =      F    write electronic localiz. function (ELF)
   LORBIT       =     11    0 simple, 1 ext, 2 COOP (PROOUT), +10 PAW based schemes


 Dipole corrections
   LMONO  =      F    monopole corrections only (constant potential shift)
   LDIPOL =      F    correct potential (dipole corrections)
   IDIPOL =      0    1-x, 2-y, 3-z, 4-all directions 
   EPSILON=  1.0000000 bulk dielectric constant

 Exchange correlation treatment:
   GGA     =    --    GGA type
   LEXCH   =     8    internal setting for exchange type
   VOSKOWN=      0    Vosko Wilk Nusair interpolation
   LHFCALC =     F    Hartree Fock is set to
   LHFONE  =     F    Hartree Fock one center treatment
   AEXX    =    0.0000 exact exchange contribution

 Linear response parameters
   LEPSILON=     F    determine dielectric tensor
   LRPA    =     F    only Hartree local field effects (RPA)
   LNABLA  =     F    use nabla operator in PAW spheres
   LVEL    =     F    velocity operator in full k-point grid
   LINTERFAST=   F  fast interpolation
   KINTER  =     0    interpolate to denser k-point grid
   CSHIFT  =0.1000    complex shift for real part using Kramers Kronig
   OMEGAMAX=  -1.0    maximum frequency
   DEG_THRESHOLD= 0.2000000E-02 threshold for treating states as degnerate
   RTIME   =   -0.100 relaxation time in fs
  (WPLASMAI=    0.000 imaginary part of plasma frequency in eV, 0.658/RTIME)
   DFIELD  = 0.0000000 0.0000000 0.0000000 field for delta impulse in time

 Orbital magnetization related:
   ORBITALMAG=     F  switch on orbital magnetization
   LCHIMAG   =     F  perturbation theory with respect to B field
   DQ        =  0.001000  dq finite difference perturbation B field
   LLRAUG    =     F  two centre corrections for induced B field



--------------------------------------------------------------------------------------------------------


 quasi-Newton-method for relaxation of ions
 charge density and potential will be updated during run
 spin polarized calculation
 Variant of blocked Davidson
 Davidson routine will perform the subspace rotation
 perform sub-space diagonalisation
    after iterative eigenvector-optimisation
 modified Broyden-mixing scheme, WC =      100.0
 initial mixing is a Kerker type mixing with AMIX =  0.4000 and BMIX =      1.0000
 Hartree-type preconditioning will be used
 using additional bands           20
 real space projection scheme for non local part
 use partial core corrections
 calculate Harris-corrections to forces   (improved forces if not selfconsistent)
 use gradient corrections 
 use of overlap-Matrix (Vanderbilt PP)
 Gauss-broadening in eV      SIGMA  =   0.20


--------------------------------------------------------------------------------------------------------


  energy-cutoff  :      520.00
  volume of cell :      580.43
      direct lattice vectors                 reciprocal lattice vectors
     7.770644000  0.000004000  0.000000000     0.128689463 -0.000000038  0.000000012
     0.000002000  6.729576000  0.000000000    -0.000000076  0.148597772  0.000000013
    -0.000001000 -0.000001000 11.099577000     0.000000000  0.000000000  0.090093523

  length of vectors
     7.770644000  6.729576000 11.099577000     0.128689463  0.148597772  0.090093523



 k-points in units of 2pi/SCALE and weight: read from INCAR                         
   0.00000000  0.00000000  0.00000000       0.125
   0.06434473 -0.00000002  0.00000001       0.125
  -0.00000004  0.07429889  0.00000001       0.125
   0.06434469  0.07429887  0.00000001       0.125
   0.00000000  0.00000000  0.04504676       0.125
   0.06434473 -0.00000002  0.04504677       0.125
  -0.00000004  0.07429889  0.04504677       0.125
   0.06434469  0.07429887  0.04504677       0.125

 k-points in reciprocal lattice and weights: read from INCAR                         
   0.00000000  0.00000000  0.00000000       0.125
   0.50000000  0.00000000  0.00000000       0.125
   0.00000000  0.50000000  0.00000000       0.125
   0.50000000  0.50000000  0.00000000       0.125
   0.00000000  0.00000000  0.50000000       0.125
   0.50000000  0.00000000  0.50000000       0.125
   0.00000000  0.50000000  0.50000000       0.125
   0.50000000  0.50000000  0.50000000       0.125

 position of ions in fractional coordinates (direct lattice) 
   0.99231100  0.33438500  0.11631100
   0.49835800  0.33670400  0.12043500
   0.24365100  0.83138400  0.12094500
   0.74705100  0.83203200  0.11973300
   0.24759100  0.15307600  0.89764500
   0.72589100  0.16842300  0.88018300
   0.49632400  0.67197500  0.88750900
   0.99389900  0.67701900  0.88708900
   0.98763100  0.00172600  0.99599100
   0.49722300  0.00232200  0.00174700
   0.24539300  0.49894000  0.99935600
   0.74368700  0.49801000  0.99318200
   0.24549700  0.16574600  0.30963700
   0.74637900  0.16812600  0.31403200
   0.49935600  0.66919700  0.31227800
   0.99608800  0.66669200  0.31238800
   0.37602900  0.32891600  0.67169000
   0.24002400  0.81645800  0.68755300
   0.74313200  0.84554000  0.68509100

 position of ions in cartesian coordinates  (Angst):
   7.71089607  2.25027312  1.29100290
   3.87256316  2.26587703  1.33677756
   1.89332672  5.59486267  1.34243834
   5.80506892  5.59922545  1.32898565
   1.92394093  1.03013667  9.96347980
   5.64064000  1.13341740  9.76965898
   3.85675757  4.52210793  9.85097448
   7.72323577  4.55605390  9.84631266
   7.67452791  0.01161820 11.05507880
   3.86374292  0.01562806  0.01939096
   1.90686164  3.35765463 11.09242887
   5.77892693  3.35139813 11.02390008
   1.90766981  1.11540098  3.43683972
   5.79984552  1.13141937  3.48562236
   3.88031873  4.50341376  3.46615371
   7.74024626  4.48655815  3.46737466
   2.92198748  2.21346605  7.45547488
   1.86514200  5.49441643  7.63154747
   5.77461522  5.69012798  7.60422031



--------------------------------------------------------------------------------------------------------


 k-point  1 :   0.0000 0.0000 0.0000  plane waves:   15669
 k-point  2 :   0.5000 0.0000 0.0000  plane waves:   15660
 k-point  3 :   0.0000 0.5000 0.0000  plane waves:   15674
 k-point  4 :   0.5000 0.5000 0.0000  plane waves:   15604
 k-point  5 :   0.0000 0.0000 0.5000  plane waves:   15634
 k-point  6 :   0.5000 0.0000 0.5000  plane waves:   15620
 k-point  7 :   0.0000 0.5000 0.5000  plane waves:   15576
 k-point  8 :   0.5000 0.5000 0.5000  plane waves:   15592

 maximum and minimum number of plane-waves per node :      5250     5163

 maximum number of plane-waves:     15674
 maximum index in each direction: 
   IXMAX=   14   IYMAX=   12   IZMAX=   20
   IXMIN=  -14   IYMIN=  -13   IZMIN=  -21


 real space projection operators:
  total allocation   :      16950.08 KBytes
  max/ min on nodes  :       5667.80       5635.93


 parallel 3D FFT for wavefunctions:
    minimum data exchange during FFTs selected (reduces bandwidth)
 parallel 3D FFT for charge:
    minimum data exchange during FFTs selected (reduces bandwidth)


 total amount of memory used by VASP MPI-rank0   265325. kBytes
=======================================================================

   base      :      30000. kBytes
   nonlr-proj:       9746. kBytes
   fftplans  :      25286. kBytes
   grid      :      66476. kBytes
   one-center:        420. kBytes
   wavefun   :     133397. kBytes

     INWAV:  cpu time    0.0001: real time    0.0000
 Broyden mixing: mesh for mixing (old mesh)
   NGX = 29   NGY = 25   NGZ = 41
  (NGX  =120   NGY  =100   NGZ  =168)
  gives a total of  29725 points

 initial charge density was supplied:
 charge density of overlapping atoms calculated
 number of electron     153.0000000 magnetization      11.4000000
 keeping initial charge density in first step


--------------------------------------------------------------------------------------------------------


 Maximum index for non-local projection operator         2786
 Maximum index for augmentation-charges        10161 (set IRDMAX)


--------------------------------------------------------------------------------------------------------


 First call to EWALD:  gamma=   0.212
 Maximum number of real-space cells 3x 3x 2
 Maximum number of reciprocal cells 3x 2x 3

    FEWALD:  cpu time    0.0047: real time    0.0047


--------------------------------------- Iteration      1(   1)  ---------------------------------------


    POTLOK:  cpu time    1.6264: real time    1.6345
    SETDIJ:  cpu time    0.1007: real time    0.1012
     EDDAV:  cpu time   46.1624: real time   46.4426
       DOS:  cpu time    0.0038: real time    0.0038
    --------------------------------------------
      LOOP:  cpu time   47.8934: real time   48.1821

 eigenvalue-minimisations  :  3104
 total energy-change (2. order) : 0.1044254E+04  (-0.6846693E+04)
 number of electron     153.0000000 magnetization      11.4000000
 augmentation part      153.0000000 magnetization      11.4000000

 Free energy of the ion-electron system (eV)
  ---------------------------------------------------
  alpha Z        PSCENC =       490.14769152
  Ewald energy   TEWEN  =     -5501.34075238
  -Hartree energ DENC   =     -5183.90566593
  -exchange      EXHF   =         0.00000000
  -V(xc)+E(xc)   XCENC  =       295.77415969
  PAW double counting   =      8755.10086986    -8465.77839650
  entropy T*S    EENTRO =        -0.11459257
  eigenvalues    EBANDS =      -520.59919512
  atomic energy  EATOM  =     11174.96942390
  Solvation  Ediel_sol  =         0.00000000
  ---------------------------------------------------
  free energy    TOTEN  =      1044.25354248 eV

  energy without entropy =     1044.36813505  energy(sigma->0) =     1044.31083876


--------------------------------------------------------------------------------------------------------




--------------------------------------- Iteration      1(   2)  ---------------------------------------


     EDDAV:  cpu time   58.8308: real time   59.2081
       DOS:  cpu time    0.0038: real time    0.0038
    --------------------------------------------
      LOOP:  cpu time   58.8346: real time   59.2120

 eigenvalue-minimisations  :  3668
 total energy-change (2. order) :-0.1055061E+04  (-0.1011757E+04)
 number of electron     153.0000000 magnetization      11.4000000
 augmentation part      153.0000000 magnetization      11.4000000

 Free energy of the ion-electron system (eV)
  ---------------------------------------------------
  alpha Z        PSCENC =       490.14769152
  Ewald energy   TEWEN  =     -5501.34075238
  -Hartree energ DENC   =     -5183.90566593
  -exchange      EXHF   =         0.00000000
  -V(xc)+E(xc)   XCENC  =       295.77415969
  PAW double counting   =      8755.10086986    -8465.77839650
  entropy T*S    EENTRO =        -0.10434479
  eigenvalues    EBANDS =     -1575.67084456
  atomic energy  EATOM  =     11174.96942390
  Solvation  Ediel_sol  =         0.00000000
  ---------------------------------------------------
  free energy    TOTEN  =       -10.80785919 eV

  energy without entropy =      -10.70351439  energy(sigma->0) =      -10.75568679


--------------------------------------------------------------------------------------------------------




--------------------------------------- Iteration      1(   3)  ---------------------------------------


     EDDAV:  cpu time   69.0803: real time   69.5310
       DOS:  cpu time    0.0038: real time    0.0038
    --------------------------------------------
      LOOP:  cpu time   69.0841: real time   69.5348

 eigenvalue-minimisations  :  4268
 total energy-change (2. order) :-0.1148770E+03  (-0.1131098E+03)
 number of electron     153.0000000 magnetization      11.4000000
 augmentation part      153.0000000 magnetization      11.4000000

 Free energy of the ion-electron system (eV)
  ---------------------------------------------------
  alpha Z        PSCENC =       490.14769152
  Ewald energy   TEWEN  =     -5501.34075238
  -Hartree energ DENC   =     -5183.90566593
  -exchange      EXHF   =         0.00000000
  -V(xc)+E(xc)   XCENC  =       295.77415969
  PAW double counting   =      8755.10086986    -8465.77839650
  entropy T*S    EENTRO =        -0.08450543
  eigenvalues    EBANDS =     -1690.56766447
  atomic energy  EATOM  =     11174.96942390
  Solvation  Ediel_sol  =         0.00000000
  ---------------------------------------------------
  free energy    TOTEN  =      -125.68483974 eV

  energy without entropy =     -125.60033431  energy(sigma->0) =     -125.64258702


--------------------------------------------------------------------------------------------------------




--------------------------------------- Iteration      1(   4)  ---------------------------------------


     EDDAV:  cpu time   81.5672: real time   82.0913
       DOS:  cpu time    0.0035: real time    0.0035
    --------------------------------------------
      LOOP:  cpu time   81.5707: real time   82.0948

 eigenvalue-minimisations  :  5320
 total energy-change (2. order) :-0.1174944E+02  (-0.1170869E+02)
 number of electron     153.0000000 magnetization      11.4000000
 augmentation part      153.0000000 magnetization      11.4000000

 Free energy of the ion-electron system (eV)
  ---------------------------------------------------
  alpha Z        PSCENC =       490.14769152
  Ewald energy   TEWEN  =     -5501.34075238
  -Hartree energ DENC   =     -5183.90566593
  -exchange      EXHF   =         0.00000000
  -V(xc)+E(xc)   XCENC  =       295.77415969
  PAW double counting   =      8755.10086986    -8465.77839650
  entropy T*S    EENTRO =        -0.08233969
  eigenvalues    EBANDS =     -1702.31926729
  atomic energy  EATOM  =     11174.96942390
  Solvation  Ediel_sol  =         0.00000000
  ---------------------------------------------------
  free energy    TOTEN  =      -137.43427681 eV

  energy without entropy =     -137.35193712  energy(sigma->0) =     -137.39310697


--------------------------------------------------------------------------------------------------------




--------------------------------------- Iteration      1(   5)  ---------------------------------------


     EDDAV:  cpu time   77.2554: real time   77.7565
       DOS:  cpu time    0.0041: real time    0.0041
    CHARGE:  cpu time    2.4120: real time    2.4260
    MIXING:  cpu time    0.0259: real time    0.0261
    --------------------------------------------
      LOOP:  cpu time   79.6975: real time   80.2126

 eigenvalue-minimisations  :  4936
 total energy-change (2. order) :-0.8918585E+00  (-0.8914137E+00)
 number of electron     153.0000004 magnetization       7.1972346
 augmentation part        6.4280613 magnetization       6.7148926

 Broyden mixing:
  rms(total) = 0.78367E+01    rms(broyden)= 0.78366E+01
  rms(prec ) = 0.82757E+01
  weight for this iteration     100.00

 Free energy of the ion-electron system (eV)
  ---------------------------------------------------
  alpha Z        PSCENC =       490.14769152
  Ewald energy   TEWEN  =     -5501.34075238
  -Hartree energ DENC   =     -5183.90566593
  -exchange      EXHF   =         0.00000000
  -V(xc)+E(xc)   XCENC  =       295.77415969
  PAW double counting   =      8755.10086986    -8465.77839650
  entropy T*S    EENTRO =        -0.08235182
  eigenvalues    EBANDS =     -1703.21111362
  atomic energy  EATOM  =     11174.96942390
  Solvation  Ediel_sol  =         0.00000000
  ---------------------------------------------------
  free energy    TOTEN  =      -138.32613528 eV

  energy without entropy =     -138.24378346  energy(sigma->0) =     -138.28495937


--------------------------------------------------------------------------------------------------------




--------------------------------------- Iteration      1(   6)  ---------------------------------------


    POTLOK:  cpu time    1.9774: real time    1.9899
    SETDIJ:  cpu time    0.1651: real time    0.1661
     EDDAV:  cpu time   65.1127: real time   65.5390
       DOS:  cpu time    0.0038: real time    0.0038
    CHARGE:  cpu time    2.6450: real time    2.6613
    MIXING:  cpu time    0.0357: real time    0.0360
    --------------------------------------------
      LOOP:  cpu time   69.9396: real time   70.3961

 eigenvalue-minimisations  :  3926
 total energy-change (2. order) : 0.2342586E+02  (-0.1241826E+02)
 number of electron     153.0000002 magnetization       4.3539938
 augmentation part        6.6275670 magnetization       3.7964739

 Broyden mixing:
  rms(total) = 0.68463E+01    rms(broyden)= 0.68463E+01
  rms(prec ) = 0.68722E+01
  weight for this iteration     100.00

 eigenvalues of (default mixing * dielectric matrix)
  average eigenvalue GAMMA=   1.1376
  1.1376

 Free energy of the ion-electron system (eV)
  ---------------------------------------------------
  alpha Z        PSCENC =       490.14769152
  Ewald energy   TEWEN  =     -5501.34075238
  -Hartree energ DENC   =     -5187.72634726
  -exchange      EXHF   =         0.00000000
  -V(xc)+E(xc)   XCENC  =       296.39995994
  PAW double counting   =     10953.14780297   -10679.24034348
  entropy T*S    EENTRO =        -0.05297453
  eigenvalues    EBANDS =     -1661.20473722
  atomic energy  EATOM  =     11174.96942390
  Solvation  Ediel_sol  =         0.00000000
  ---------------------------------------------------
  free energy    TOTEN  =      -114.90027654 eV

  energy without entropy =     -114.84730201  energy(sigma->0) =     -114.87378928


--------------------------------------------------------------------------------------------------------




--------------------------------------- Iteration      1(   7)  ---------------------------------------


    POTLOK:  cpu time    1.9692: real time    1.9813
    SETDIJ:  cpu time    0.1619: real time    0.1629
     EDDAV:  cpu time   69.2697: real time   69.7295
       DOS:  cpu time    0.0039: real time    0.0039
    CHARGE:  cpu time    2.4258: real time    2.4395
    MIXING:  cpu time    0.0377: real time    0.0379
    --------------------------------------------
      LOOP:  cpu time   73.8680: real time   74.3550

 eigenvalue-minimisations  :  4144
 total energy-change (2. order) :-0.1292930E+01  (-0.2031916E+01)
 number of electron     153.0000002 magnetization       1.1123473
 augmentation part        5.3709524 magnetization       0.6740556

 Broyden mixing:
  rms(total) = 0.38262E+01    rms(broyden)= 0.38262E+01
  rms(prec ) = 0.38431E+01
  weight for this iteration     100.00

 eigenvalues of (default mixing * dielectric matrix)
  average eigenvalue GAMMA=   1.5804
  0.7306  2.4302

 Free energy of the ion-electron system (eV)
  ---------------------------------------------------
  alpha Z        PSCENC =       490.14769152
  Ewald energy   TEWEN  =     -5501.34075238
  -Hartree energ DENC   =     -5173.59423090
  -exchange      EXHF   =         0.00000000
  -V(xc)+E(xc)   XCENC  =       294.52079314
  PAW double counting   =     12962.75656222   -12697.58138754
  entropy T*S    EENTRO =        -0.04873181
  eigenvalues    EBANDS =     -1666.02257491
  atomic energy  EATOM  =     11174.96942390
  Solvation  Ediel_sol  =         0.00000000
  ---------------------------------------------------
  free energy    TOTEN  =      -116.19320674 eV

  energy without entropy =     -116.14447493  energy(sigma->0) =     -116.16884084


--------------------------------------------------------------------------------------------------------




--------------------------------------- Iteration      1(   8)  ---------------------------------------


    POTLOK:  cpu time    1.9636: real time    1.9759
    SETDIJ:  cpu time    0.1605: real time    0.1615
     EDDAV:  cpu time   66.8285: real time   67.2659
       DOS:  cpu time    0.0035: real time    0.0035
    CHARGE:  cpu time    2.6825: real time    2.6990
    MIXING:  cpu time    0.0335: real time    0.0337
    --------------------------------------------
      LOOP:  cpu time   71.6721: real time   72.1395

 eigenvalue-minimisations  :  4040
 total energy-change (2. order) :-0.3697039E+00  (-0.6496886E+00)
 number of electron     153.0000002 magnetization       0.7572652
 augmentation part        5.1787615 magnetization       0.3857842

 Broyden mixing:
  rms(total) = 0.11372E+01    rms(broyden)= 0.11372E+01
  rms(prec ) = 0.11892E+01
  weight for this iteration     100.00

 eigenvalues of (default mixing * dielectric matrix)
  average eigenvalue GAMMA=   1.3117
  2.3760  0.9325  0.6266

 Free energy of the ion-electron system (eV)
  ---------------------------------------------------
  alpha Z        PSCENC =       490.14769152
  Ewald energy   TEWEN  =     -5501.34075238
  -Hartree energ DENC   =     -5187.23769596
  -exchange      EXHF   =         0.00000000
  -V(xc)+E(xc)   XCENC  =       294.19360407
  PAW double counting   =     14953.04295890   -14682.27271982
  entropy T*S    EENTRO =        -0.05930275
  eigenvalues    EBANDS =     -1658.00611815
  atomic energy  EATOM  =     11174.96942390
  Solvation  Ediel_sol  =         0.00000000
  ---------------------------------------------------
  free energy    TOTEN  =      -116.56291068 eV

  energy without entropy =     -116.50360792  energy(sigma->0) =     -116.53325930


--------------------------------------------------------------------------------------------------------




--------------------------------------- Iteration      1(   9)  ---------------------------------------


    POTLOK:  cpu time    2.0862: real time    2.0994
    SETDIJ:  cpu time    0.1707: real time    0.1718
     EDDAV:  cpu time   71.4337: real time   71.9048
       DOS:  cpu time    0.0035: real time    0.0035
    CHARGE:  cpu time    2.7126: real time    2.7294
    MIXING:  cpu time    0.0378: real time    0.0380
    --------------------------------------------
      LOOP:  cpu time   76.4446: real time   76.9470

 eigenvalue-minimisations  :  4288
 total energy-change (2. order) : 0.2556812E+00  (-0.1491381E+00)
 number of electron     153.0000002 magnetization       0.5753803
 augmentation part        4.9984162 magnetization       0.3252462

 Broyden mixing:
  rms(total) = 0.24409E+00    rms(broyden)= 0.24409E+00
  rms(prec ) = 0.27111E+00
  weight for this iteration     100.00

 eigenvalues of (default mixing * dielectric matrix)
  average eigenvalue GAMMA=   1.2303
  2.3688  0.9689  0.9689  0.6148

 Free energy of the ion-electron system (eV)
  ---------------------------------------------------
  alpha Z        PSCENC =       490.14769152
  Ewald energy   TEWEN  =     -5501.34075238
  -Hartree energ DENC   =     -5194.14389020
  -exchange      EXHF   =         0.00000000
  -V(xc)+E(xc)   XCENC  =       294.55085122
  PAW double counting   =     15072.89120910   -14800.30154196
  entropy T*S    EENTRO =        -0.06794248
  eigenvalues    EBANDS =     -1653.01227824
  atomic energy  EATOM  =     11174.96942390
  Solvation  Ediel_sol  =         0.00000000
  ---------------------------------------------------
  free energy    TOTEN  =      -116.30722952 eV

  energy without entropy =     -116.23928704  energy(sigma->0) =     -116.27325828


--------------------------------------------------------------------------------------------------------




--------------------------------------- Iteration      1(  10)  ---------------------------------------


    POTLOK:  cpu time    2.0681: real time    2.0818
    SETDIJ:  cpu time    0.2008: real time    0.2021
     EDDAV:  cpu time   69.3015: real time   69.7547
       DOS:  cpu time    0.0035: real time    0.0035
    CHARGE:  cpu time    2.3911: real time    2.4045
    MIXING:  cpu time    0.0396: real time    0.0398
    --------------------------------------------
      LOOP:  cpu time   74.0045: real time   74.4864

 eigenvalue-minimisations  :  4192
 total energy-change (2. order) :-0.1543456E-01  (-0.3555970E-01)
 number of electron     153.0000002 magnetization       0.3788006
 augmentation part        4.9157332 magnetization       0.1981029

 Broyden mixing:
  rms(total) = 0.13852E+00    rms(broyden)= 0.13852E+00
  rms(prec ) = 0.16119E+00
  weight for this iteration     100.00

 eigenvalues of (default mixing * dielectric matrix)
  average eigenvalue GAMMA=   1.2559
  2.2591  1.6831  0.8548  0.8548  0.6275

 Free energy of the ion-electron system (eV)
  ---------------------------------------------------
  alpha Z        PSCENC =       490.14769152
  Ewald energy   TEWEN  =     -5501.34075238
  -Hartree energ DENC   =     -5201.64704355
  -exchange      EXHF   =         0.00000000
  -V(xc)+E(xc)   XCENC  =       294.89352691
  PAW double counting   =     15096.69114286   -14820.79640752
  entropy T*S    EENTRO =        -0.07237086
  eigenvalues    EBANDS =     -1649.16787496
  atomic energy  EATOM  =     11174.96942390
  Solvation  Ediel_sol  =         0.00000000
  ---------------------------------------------------
  free energy    TOTEN  =      -116.32266408 eV

  energy without entropy =     -116.25029322  energy(sigma->0) =     -116.28647865


--------------------------------------------------------------------------------------------------------




--------------------------------------- Iteration      1(  11)  ---------------------------------------


    POTLOK:  cpu time    2.0180: real time    2.0311
    SETDIJ:  cpu time    0.1841: real time    0.1852
     EDDAV:  cpu time   66.0562: real time   66.4792
       DOS:  cpu time    0.0039: real time    0.0039
    CHARGE:  cpu time    2.5101: real time    2.5247
    MIXING:  cpu time    0.0391: real time    0.0393
    --------------------------------------------
      LOOP:  cpu time   70.8114: real time   71.2634

 eigenvalue-minimisations  :  4040
 total energy-change (2. order) :-0.4228872E-02  (-0.1002993E-01)
 number of electron     153.0000002 magnetization       0.2347977
 augmentation part        4.9207221 magnetization       0.1311021

 Broyden mixing:
  rms(total) = 0.52933E-01    rms(broyden)= 0.52932E-01
  rms(prec ) = 0.65473E-01
  weight for this iteration     100.00

 eigenvalues of (default mixing * dielectric matrix)
  average eigenvalue GAMMA=   1.2603
  2.2085  2.2085  0.8818  0.8818  0.6132  0.7681

 Free energy of the ion-electron system (eV)
  ---------------------------------------------------
  alpha Z        PSCENC =       490.14769152
  Ewald energy   TEWEN  =     -5501.34075238
  -Hartree energ DENC   =     -5210.69407612
  -exchange      EXHF   =         0.00000000
  -V(xc)+E(xc)   XCENC  =       295.24004938
  PAW double counting   =     15065.17988326   -14784.30760464
  entropy T*S    EENTRO =        -0.07573665
  eigenvalues    EBANDS =     -1645.44577123
  atomic energy  EATOM  =     11174.96942390
  Solvation  Ediel_sol  =         0.00000000
  ---------------------------------------------------
  free energy    TOTEN  =      -116.32689295 eV

  energy without entropy =     -116.25115630  energy(sigma->0) =     -116.28902463


--------------------------------------------------------------------------------------------------------




--------------------------------------- Iteration      1(  12)  ---------------------------------------


    POTLOK:  cpu time    2.0841: real time    2.0980
    SETDIJ:  cpu time    0.1986: real time    0.1998
     EDDAV:  cpu time   68.4185: real time   68.8576
       DOS:  cpu time    0.0039: real time    0.0039
    CHARGE:  cpu time    2.4662: real time    2.4803
    MIXING:  cpu time    0.0390: real time    0.0392
    --------------------------------------------
      LOOP:  cpu time   73.2102: real time   73.6788

 eigenvalue-minimisations  :  4208
 total energy-change (2. order) :-0.2062924E-02  (-0.1142089E-02)
 number of electron     153.0000002 magnetization       0.1581608
 augmentation part        4.9412635 magnetization       0.0961247

 Broyden mixing:
  rms(total) = 0.34508E-01    rms(broyden)= 0.34507E-01
  rms(prec ) = 0.40298E-01
  weight for this iteration     100.00

 eigenvalues of (default mixing * dielectric matrix)
  average eigenvalue GAMMA=   1.2426
  2.2801  2.2801  1.2327  0.8399  0.8399  0.6128  0.6128

 Free energy of the ion-electron system (eV)
  ---------------------------------------------------
  alpha Z        PSCENC =       490.14769152
  Ewald energy   TEWEN  =     -5501.34075238
  -Hartree energ DENC   =     -5213.76379101
  -exchange      EXHF   =         0.00000000
  -V(xc)+E(xc)   XCENC  =       295.35587458
  PAW double counting   =     15091.66555532   -14809.55243504
  entropy T*S    EENTRO =        -0.07652132
  eigenvalues    EBANDS =     -1643.73400145
  atomic energy  EATOM  =     11174.96942390
  Solvation  Ediel_sol  =         0.00000000
  ---------------------------------------------------
  free energy    TOTEN  =      -116.32895587 eV

  energy without entropy =     -116.25243455  energy(sigma->0) =     -116.29069521


--------------------------------------------------------------------------------------------------------




--------------------------------------- Iteration      1(  13)  ---------------------------------------


    POTLOK:  cpu time    1.9525: real time    1.9644
    SETDIJ:  cpu time    0.1695: real time    0.1706
     EDDAV:  cpu time   69.8476: real time   70.2981
       DOS:  cpu time    0.0037: real time    0.0037
    CHARGE:  cpu time    2.7759: real time    2.7933
    MIXING:  cpu time    0.0391: real time    0.0394
    --------------------------------------------
      LOOP:  cpu time   74.7884: real time   75.2695

 eigenvalue-minimisations  :  4224
 total energy-change (2. order) :-0.1503876E-02  (-0.4327298E-03)
 number of electron     153.0000002 magnetization       0.0870877
 augmentation part        4.9502734 magnetization       0.0385327

 Broyden mixing:
  rms(total) = 0.15797E-01    rms(broyden)= 0.15797E-01
  rms(prec ) = 0.20955E-01
  weight for this iteration     100.00

 eigenvalues of (default mixing * dielectric matrix)
  average eigenvalue GAMMA=   1.2738
  2.3755  2.3755  1.4135  1.1171  0.8359  0.8359  0.6185  0.6185

 Free energy of the ion-electron system (eV)
  ---------------------------------------------------
  alpha Z        PSCENC =       490.14769152
  Ewald energy   TEWEN  =     -5501.34075238
  -Hartree energ DENC   =     -5214.81648479
  -exchange      EXHF   =         0.00000000
  -V(xc)+E(xc)   XCENC  =       295.39181388
  PAW double counting   =     15103.25093520   -14820.95778205
  entropy T*S    EENTRO =        -0.07675521
  eigenvalues    EBANDS =     -1642.89854983
  atomic energy  EATOM  =     11174.96942390
  Solvation  Ediel_sol  =         0.00000000
  ---------------------------------------------------
  free energy    TOTEN  =      -116.33045975 eV

  energy without entropy =     -116.25370454  energy(sigma->0) =     -116.29208214


--------------------------------------------------------------------------------------------------------




--------------------------------------- Iteration      1(  14)  ---------------------------------------


    POTLOK:  cpu time    2.0334: real time    2.0461
    SETDIJ:  cpu time    0.1923: real time    0.1935
     EDDAV:  cpu time   63.5799: real time   63.9972
       DOS:  cpu time    0.0037: real time    0.0037
    CHARGE:  cpu time    2.8337: real time    2.8519
    MIXING:  cpu time    0.0377: real time    0.0380
    --------------------------------------------
      LOOP:  cpu time   68.6806: real time   69.1305

 eigenvalue-minimisations  :  3792
 total energy-change (2. order) :-0.1403638E-02  (-0.2242330E-03)
 number of electron     153.0000002 magnetization       0.0294878
 augmentation part        4.9545842 magnetization       0.0013030

 Broyden mixing:
  rms(total) = 0.81008E-02    rms(broyden)= 0.81006E-02
  rms(prec ) = 0.11956E-01
  weight for this iteration     100.00

 eigenvalues of (default mixing * dielectric matrix)
  average eigenvalue GAMMA=   1.3306
  2.5522  2.5522  1.7786  1.3811  0.8462  0.8462  0.7860  0.6166  0.6166

 Free energy of the ion-electron system (eV)
  ---------------------------------------------------
  alpha Z        PSCENC =       490.14769152
  Ewald energy   TEWEN  =     -5501.34075238
  -Hartree energ DENC   =     -5215.84586155
  -exchange      EXHF   =         0.00000000
  -V(xc)+E(xc)   XCENC  =       295.42342377
  PAW double counting   =     15104.22197590   -14821.78085050
  entropy T*S    EENTRO =        -0.07697214
  eigenvalues    EBANDS =     -1642.04994192
  atomic energy  EATOM  =     11174.96942390
  Solvation  Ediel_sol  =         0.00000000
  ---------------------------------------------------
  free energy    TOTEN  =      -116.33186339 eV

  energy without entropy =     -116.25489125  energy(sigma->0) =     -116.29337732


--------------------------------------------------------------------------------------------------------




--------------------------------------- Iteration      1(  15)  ---------------------------------------


    POTLOK:  cpu time    1.9902: real time    2.0030
    SETDIJ:  cpu time    0.1785: real time    0.1796
     EDDAV:  cpu time   63.1744: real time   63.5864
       DOS:  cpu time    0.0039: real time    0.0039
    CHARGE:  cpu time    2.4439: real time    2.4580
    MIXING:  cpu time    0.0359: real time    0.0362
    --------------------------------------------
      LOOP:  cpu time   67.8267: real time   68.2671

 eigenvalue-minimisations  :  3704
 total energy-change (2. order) :-0.6198986E-03  (-0.8860584E-04)
 number of electron     153.0000002 magnetization       0.0067243
 augmentation part        4.9584801 magnetization      -0.0031838

 Broyden mixing:
  rms(total) = 0.47299E-02    rms(broyden)= 0.47298E-02
  rms(prec ) = 0.63908E-02
  weight for this iteration     100.00

 eigenvalues of (default mixing * dielectric matrix)
  average eigenvalue GAMMA=   1.3455
  2.8412  2.2661  2.2661  1.5452  0.9564  0.8143  0.8143  0.6123  0.6698  0.6698

 Free energy of the ion-electron system (eV)
  ---------------------------------------------------
  alpha Z        PSCENC =       490.14769152
  Ewald energy   TEWEN  =     -5501.34075238
  -Hartree energ DENC   =     -5216.50402102
  -exchange      EXHF   =         0.00000000
  -V(xc)+E(xc)   XCENC  =       295.44379129
  PAW double counting   =     15108.67380411   -14826.27761744
  entropy T*S    EENTRO =        -0.07706266
  eigenvalues    EBANDS =     -1641.36774061
  atomic energy  EATOM  =     11174.96942390
  Solvation  Ediel_sol  =         0.00000000
  ---------------------------------------------------
  free energy    TOTEN  =      -116.33248329 eV

  energy without entropy =     -116.25542062  energy(sigma->0) =     -116.29395195


--------------------------------------------------------------------------------------------------------




--------------------------------------- Iteration      1(  16)  ---------------------------------------


    POTLOK:  cpu time    1.8198: real time    1.8310
    SETDIJ:  cpu time    0.1692: real time    0.1702
     EDDAV:  cpu time   63.7259: real time   64.1368
       DOS:  cpu time    0.0037: real time    0.0037
    CHARGE:  cpu time    2.4072: real time    2.4209
    MIXING:  cpu time    0.0470: real time    0.0473
    --------------------------------------------
      LOOP:  cpu time   68.1728: real time   68.6099

 eigenvalue-minimisations  :  3768
 total energy-change (2. order) :-0.1314966E-03  (-0.3450745E-04)
 number of electron     153.0000002 magnetization       0.0001446
 augmentation part        4.9603870 magnetization      -0.0028092

 Broyden mixing:
  rms(total) = 0.30137E-02    rms(broyden)= 0.30135E-02
  rms(prec ) = 0.34773E-02
  weight for this iteration     100.00

 eigenvalues of (default mixing * dielectric matrix)
  average eigenvalue GAMMA=   1.3451
  3.2778  2.2995  2.2995  1.6925  1.0395  0.8172  0.8172  0.7420  0.6483  0.6164
  0.5460

 Free energy of the ion-electron system (eV)
  ---------------------------------------------------
  alpha Z        PSCENC =       490.14769152
  Ewald energy   TEWEN  =     -5501.34075238
  -Hartree energ DENC   =     -5216.71176086
  -exchange      EXHF   =         0.00000000
  -V(xc)+E(xc)   XCENC  =       295.45016100
  PAW double counting   =     15109.02998551   -14826.72958466
  entropy T*S    EENTRO =        -0.07707506
  eigenvalues    EBANDS =     -1641.07070376
  atomic energy  EATOM  =     11174.96942390
  Solvation  Ediel_sol  =         0.00000000
  ---------------------------------------------------
  free energy    TOTEN  =      -116.33261478 eV

  energy without entropy =     -116.25553972  energy(sigma->0) =     -116.29407725


--------------------------------------------------------------------------------------------------------




--------------------------------------- Iteration      1(  17)  ---------------------------------------


    POTLOK:  cpu time    1.9885: real time    2.0016
    SETDIJ:  cpu time    0.1860: real time    0.1872
     EDDAV:  cpu time   54.7488: real time   55.1063
       DOS:  cpu time    0.0036: real time    0.0036
    CHARGE:  cpu time    2.4594: real time    2.4738
    MIXING:  cpu time    0.0408: real time    0.0410
    --------------------------------------------
      LOOP:  cpu time   59.4271: real time   59.8136

 eigenvalue-minimisations  :  3168
 total energy-change (2. order) :-0.2678618E-04  (-0.4185853E-05)
 number of electron     153.0000002 magnetization      -0.0006778
 augmentation part        4.9605583 magnetization      -0.0008745

 Broyden mixing:
  rms(total) = 0.15449E-02    rms(broyden)= 0.15448E-02
  rms(prec ) = 0.18100E-02
  weight for this iteration     100.00

 eigenvalues of (default mixing * dielectric matrix)
  average eigenvalue GAMMA=   1.3573
  3.4775  2.4286  2.4286  1.7322  1.1664  0.8100  0.8100  0.8481  0.7533  0.6561
  0.5784  0.5984

 Free energy of the ion-electron system (eV)
  ---------------------------------------------------
  alpha Z        PSCENC =       490.14769152
  Ewald energy   TEWEN  =     -5501.34075238
  -Hartree energ DENC   =     -5216.72031368
  -exchange      EXHF   =         0.00000000
  -V(xc)+E(xc)   XCENC  =       295.44983715
  PAW double counting   =     15107.24741976   -14825.03273067
  entropy T*S    EENTRO =        -0.07707664
  eigenvalues    EBANDS =     -1640.97614054
  atomic energy  EATOM  =     11174.96942390
  Solvation  Ediel_sol  =         0.00000000
  ---------------------------------------------------
  free energy    TOTEN  =      -116.33264157 eV

  energy without entropy =     -116.25556493  energy(sigma->0) =     -116.29410325


--------------------------------------------------------------------------------------------------------




--------------------------------------- Iteration      1(  18)  ---------------------------------------


    POTLOK:  cpu time    1.8226: real time    1.8336
    SETDIJ:  cpu time    0.1659: real time    0.1669
     EDDAV:  cpu time   46.6124: real time   46.9142
       DOS:  cpu time    0.0035: real time    0.0035
    --------------------------------------------
      LOOP:  cpu time   48.6043: real time   48.9182

 eigenvalue-minimisations  :  2496
 total energy-change (2. order) :-0.3848209E-05  (-0.4626546E-06)
 number of electron     153.0000002 magnetization      -0.0006778
 augmentation part        4.9605583 magnetization      -0.0008745

 Free energy of the ion-electron system (eV)
  ---------------------------------------------------
  alpha Z        PSCENC =       490.14769152
  Ewald energy   TEWEN  =     -5501.34075238
  -Hartree energ DENC   =     -5216.70291535
  -exchange      EXHF   =         0.00000000
  -V(xc)+E(xc)   XCENC  =       295.44866172
  PAW double counting   =     15106.13354010   -14823.95194492
  entropy T*S    EENTRO =        -0.07707688
  eigenvalues    EBANDS =     -1640.95927313
  atomic energy  EATOM  =     11174.96942390
  Solvation  Ediel_sol  =         0.00000000
  ---------------------------------------------------
  free energy    TOTEN  =      -116.33264542 eV

  energy without entropy =     -116.25556854  energy(sigma->0) =     -116.29410698


--------------------------------------------------------------------------------------------------------




 average (electrostatic) potential at core
  the test charge radii are     1.2780  0.6991  1.1875
  (the norm of the test charge is              1.0000)
       1 -36.8795       2 -36.9051       3 -37.0031       4 -36.9478       5 -36.7359
       6 -37.3265       7 -36.9317       8 -36.9728       9 -50.0109      10 -49.9902
      11 -49.9490      12 -50.0350      13 -92.7087      14 -92.7172      15 -92.7683
      16 -92.7755      17 -92.6676      18 -92.7082      19 -93.0585



 E-fermi :   3.5276     XC(G=0):  -8.6127     alpha+bet : -9.1734


 spin component 1

 k-point     1 :       0.0000    0.0000    0.0000
  band No.  band energies     occupation 
      1     -39.2109      1.00000
      2     -38.9029      1.00000
      3     -38.8680      1.00000
      4     -38.8406      1.00000
      5     -38.8194      1.00000
      6     -38.7962      1.00000
      7     -38.7689      1.00000
      8     -38.6468      1.00000
      9     -19.3459      1.00000
     10     -19.2529      1.00000
     11     -19.2246      1.00000
     12     -19.1382      1.00000
     13     -19.1003      1.00000
     14     -19.0883      1.00000
     15     -19.0336      1.00000
     16     -18.9902      1.00000
     17     -18.9356      1.00000
     18     -18.8905      1.00000
     19     -18.8813      1.00000
     20     -18.8512      1.00000
     21     -18.8353      1.00000
     22     -18.8170      1.00000
     23     -18.7901      1.00000
     24     -18.7783      1.00000
     25     -18.7580      1.00000
     26     -18.7295      1.00000
     27     -18.7191      1.00000
     28     -18.7120      1.00000
     29     -18.7079      1.00000
     30     -18.6587      1.00000
     31     -18.5990      1.00000
     32     -18.5971      1.00000
     33      -9.9720      1.00000
     34      -9.8595      1.00000
     35      -9.5526      1.00000
     36      -9.3173      1.00000
     37      -9.2824      1.00000
     38      -9.2523      1.00000
     39      -8.9764      1.00000
     40      -5.4115      1.00000
     41      -4.9639      1.00000
     42      -4.9178      1.00000
     43      -4.8194      1.00000
     44      -1.3071      1.00000
     45      -1.0804      1.00000
     46      -0.9380      1.00000
     47      -0.8177      1.00000
     48      -0.7386      1.00000
     49      -0.6986      1.00000
     50      -0.4664      1.00000
     51      -0.1586      1.00000
     52      -0.0029      1.00000
     53       0.0837      1.00000
     54       0.1247      1.00000
     55       0.2604      1.00000
     56       0.3026      1.00000
     57       0.3611      1.00000
     58       0.4660      1.00000
     59       0.5451      1.00000
     60       1.1732      1.00000
     61       1.2739      1.00000
     62       1.3831      1.00000
     63       1.5367      1.00000
     64       1.5505      1.00000
     65       1.6395      1.00000
     66       1.7533      1.00000
     67       1.7811      1.00000
     68       1.9193      1.00000
     69       1.9955      1.00000
     70       2.1888      1.00000
     71       2.3428      1.00000
     72       2.3739      1.00000
     73       2.4601      1.00000
     74       2.5270      1.00000
     75       2.6574      1.00000
     76       2.7484      1.00000
     77       3.4635      0.67487
     78       4.2105      0.00000
     79       4.6297      0.00000
     80       4.8913      0.00000
     81       4.9183      0.00000
     82       5.2060      0.00000
     83       5.2162      0.00000
     84       5.2965      0.00000
     85       5.6661      0.00000
     86       6.2042      0.00000
     87       6.4998      0.00000
     88       6.6367      0.00000
     89       6.6462      0.00000
     90       6.7606      0.00000
     91       6.8177      0.00000
     92       6.9254      0.00000
     93       7.0310      0.00000
     94       7.1036      0.00000
     95       7.1633      0.00000
     96       7.2513      0.00000
     97       7.2987      0.00000

 k-point     2 :       0.5000    0.0000    0.0000
  band No.  band energies     occupation 
      1     -39.2109      1.00000
      2     -38.9011      1.00000
      3     -38.8700      1.00000
      4     -38.8410      1.00000
      5     -38.8188      1.00000
      6     -38.7954      1.00000
      7     -38.7698      1.00000
      8     -38.6467      1.00000
      9     -19.3433      1.00000
     10     -19.2433      1.00000
     11     -19.2135      1.00000
     12     -19.1307      1.00000
     13     -19.0892      1.00000
     14     -19.0619      1.00000
     15     -18.9986      1.00000
     16     -18.9837      1.00000
     17     -18.9564      1.00000
     18     -18.9232      1.00000
     19     -18.9040      1.00000
     20     -18.8469      1.00000
     21     -18.8266      1.00000
     22     -18.8133      1.00000
     23     -18.7911      1.00000
     24     -18.7789      1.00000
     25     -18.7671      1.00000
     26     -18.7568      1.00000
     27     -18.7288      1.00000
     28     -18.7260      1.00000
     29     -18.7105      1.00000
     30     -18.6519      1.00000
     31     -18.6085      1.00000
     32     -18.5884      1.00000
     33      -9.7718      1.00000
     34      -9.7308      1.00000
     35      -9.6886      1.00000
     36      -9.6627      1.00000
     37      -9.2070      1.00000
     38      -9.2032      1.00000
     39      -8.9781      1.00000
     40      -5.2410      1.00000
     41      -5.1651      1.00000
     42      -4.8936      1.00000
     43      -4.7990      1.00000
     44      -1.0325      1.00000
     45      -0.8619      1.00000
     46      -0.8317      1.00000
     47      -0.5573      1.00000
     48      -0.4788      1.00000
     49      -0.2903      1.00000
     50      -0.1940      1.00000
     51      -0.1586      1.00000
     52      -0.0579      1.00000
     53      -0.0301      1.00000
     54      -0.0018      1.00000
     55       0.1650      1.00000
     56       0.2500      1.00000
     57       0.2868      1.00000
     58       0.5025      1.00000
     59       0.5553      1.00000
     60       0.5668      1.00000
     61       0.6326      1.00000
     62       1.4617      1.00000
     63       1.4836      1.00000
     64       1.5044      1.00000
     65       1.5621      1.00000
     66       1.6746      1.00000
     67       1.7865      1.00000
     68       1.8723      1.00000
     69       1.8951      1.00000
     70       1.9457      1.00000
     71       2.0242      1.00000
     72       2.1701      1.00000
     73       2.2713      1.00000
     74       2.3832      1.00000
     75       2.5869      1.00000
     76       2.6100      1.00000
     77       4.4244      0.00000
     78       4.4914      0.00000
     79       4.5407      0.00000
     80       4.6850      0.00000
     81       5.0446      0.00000
     82       5.2448      0.00000
     83       5.2629      0.00000
     84       5.5912      0.00000
     85       5.7460      0.00000
     86       5.9453      0.00000
     87       6.0204      0.00000
     88       6.1152      0.00000
     89       6.3263      0.00000
     90       6.5067      0.00000
     91       6.6060      0.00000
     92       6.6423      0.00000
     93       6.7636      0.00000
     94       7.0993      0.00000
     95       7.1530      0.00000
     96       7.2369      0.00000
     97       7.3682      0.00000

 k-point     3 :       0.0000    0.5000    0.0000
  band No.  band energies     occupation 
      1     -39.2108      1.00000
      2     -38.9019      1.00000
      3     -38.8682      1.00000
      4     -38.8401      1.00000
      5     -38.8206      1.00000
      6     -38.7962      1.00000
      7     -38.7692      1.00000
      8     -38.6468      1.00000
      9     -19.3435      1.00000
     10     -19.2590      1.00000
     11     -19.2233      1.00000
     12     -19.1399      1.00000
     13     -19.1095      1.00000
     14     -19.0668      1.00000
     15     -19.0490      1.00000
     16     -18.9540      1.00000
     17     -18.9266      1.00000
     18     -18.9132      1.00000
     19     -18.8573      1.00000
     20     -18.8498      1.00000
     21     -18.8422      1.00000
     22     -18.8206      1.00000
     23     -18.8022      1.00000
     24     -18.7866      1.00000
     25     -18.7590      1.00000
     26     -18.7348      1.00000
     27     -18.7319      1.00000
     28     -18.7124      1.00000
     29     -18.7023      1.00000
     30     -18.6578      1.00000
     31     -18.5983      1.00000
     32     -18.5961      1.00000
     33      -9.7983      1.00000
     34      -9.6619      1.00000
     35      -9.6071      1.00000
     36      -9.4000      1.00000
     37      -9.3152      1.00000
     38      -9.2812      1.00000
     39      -9.2404      1.00000
     40      -5.1929      1.00000
     41      -5.1233      1.00000
     42      -4.9389      1.00000
     43      -4.8396      1.00000
     44      -1.3261      1.00000
     45      -1.2914      1.00000
     46      -1.0517      1.00000
     47      -0.5895      1.00000
     48      -0.4143      1.00000
     49      -0.3455      1.00000
     50      -0.2052      1.00000
     51      -0.1916      1.00000
     52      -0.0094      1.00000
     53       0.0740      1.00000
     54       0.1109      1.00000
     55       0.1975      1.00000
     56       0.2363      1.00000
     57       0.4421      1.00000
     58       0.7097      1.00000
     59       1.1505      1.00000
     60       1.1896      1.00000
     61       1.2438      1.00000
     62       1.3192      1.00000
     63       1.3530      1.00000
     64       1.4768      1.00000
     65       1.5367      1.00000
     66       1.5842      1.00000
     67       1.6457      1.00000
     68       1.8267      1.00000
     69       1.9907      1.00000
     70       2.0475      1.00000
     71       2.2372      1.00000
     72       2.3885      1.00000
     73       2.4074      1.00000
     74       2.4804      1.00000
     75       2.4875      1.00000
     76       2.5366      1.00000
     77       3.4456      0.71895
     78       3.4796      0.63285
     79       4.0157      0.00028
     80       4.2422      0.00000
     81       4.7471      0.00000
     82       5.7159      0.00000
     83       5.8482      0.00000
     84       5.9288      0.00000
     85       6.0788      0.00000
     86       6.1829      0.00000
     87       6.3898      0.00000
     88       6.6432      0.00000
     89       6.7470      0.00000
     90       6.8122      0.00000
     91       6.9029      0.00000
     92       7.0382      0.00000
     93       7.1032      0.00000
     94       7.1373      0.00000
     95       7.2079      0.00000
     96       7.2872      0.00000
     97       7.3363      0.00000

 k-point     4 :       0.5000    0.5000    0.0000
  band No.  band energies     occupation 
      1     -39.2107      1.00000
      2     -38.9003      1.00000
      3     -38.8699      1.00000
      4     -38.8406      1.00000
      5     -38.8200      1.00000
      6     -38.7954      1.00000
      7     -38.7702      1.00000
      8     -38.6467      1.00000
      9     -19.3418      1.00000
     10     -19.2433      1.00000
     11     -19.2123      1.00000
     12     -19.1290      1.00000
     13     -19.0843      1.00000
     14     -19.0499      1.00000
     15     -18.9978      1.00000
     16     -18.9793      1.00000
     17     -18.9691      1.00000
     18     -18.9101      1.00000
     19     -18.9023      1.00000
     20     -18.8780      1.00000
     21     -18.8293      1.00000
     22     -18.8123      1.00000
     23     -18.8070      1.00000
     24     -18.7763      1.00000
     25     -18.7608      1.00000
     26     -18.7463      1.00000
     27     -18.7323      1.00000
     28     -18.7193      1.00000
     29     -18.7110      1.00000
     30     -18.6574      1.00000
     31     -18.6081      1.00000
     32     -18.5866      1.00000
     33      -9.7172      1.00000
     34      -9.5062      1.00000
     35      -9.5021      1.00000
     36      -9.4581      1.00000
     37      -9.4412      1.00000
     38      -9.4342      1.00000
     39      -9.2838      1.00000
     40      -5.1028      1.00000
     41      -5.0597      1.00000
     42      -5.0205      1.00000
     43      -4.9041      1.00000
     44      -0.5371      1.00000
     45      -0.5042      1.00000
     46      -0.4780      1.00000
     47      -0.4566      1.00000
     48      -0.4398      1.00000
     49      -0.3700      1.00000
     50      -0.3584      1.00000
     51      -0.2686      1.00000
     52      -0.2204      1.00000
     53      -0.1056      1.00000
     54      -0.0062      1.00000
     55       0.0542      1.00000
     56       0.0829      1.00000
     57       0.2025      1.00000
     58       0.3685      1.00000
     59       0.9944      1.00000
     60       1.0705      1.00000
     61       1.0893      1.00000
     62       1.1150      1.00000
     63       1.1395      1.00000
     64       1.3005      1.00000
     65       1.4008      1.00000
     66       1.5956      1.00000
     67       1.6880      1.00000
     68       1.7405      1.00000
     69       1.9967      1.00000
     70       2.0578      1.00000
     71       2.0999      1.00000
     72       2.2051      1.00000
     73       2.2169      1.00000
     74       2.2927      1.00000
     75       2.3148      1.00000
     76       2.3940      1.00000
     77       4.0497      0.00011
     78       4.1287      0.00001
     79       4.1444      0.00001
     80       4.2487      0.00000
     81       4.8783      0.00000
     82       5.1485      0.00000
     83       5.4302      0.00000
     84       5.5121      0.00000
     85       5.6906      0.00000
     86       6.1713      0.00000
     87       6.2653      0.00000
     88       6.4640      0.00000
     89       6.5778      0.00000
     90       6.6859      0.00000
     91       6.9280      0.00000
     92       6.9656      0.00000
     93       7.0129      0.00000
     94       7.1122      0.00000
     95       7.1380      0.00000
     96       7.2645      0.00000
     97       7.3496      0.00000

 k-point     5 :       0.0000    0.0000    0.5000
  band No.  band energies     occupation 
[...]
  0.000  -0.002   0.001  -0.015   0.270  -0.002   0.014  -0.269  -0.050  -0.000   0.004   0.014   0.000   0.026   0.000  -0.002
 -0.000  -0.000  -0.106   0.002   0.004   0.109  -0.002  -0.004  -0.004   0.035   0.003   0.003  -0.028   0.002  -0.021  -0.001
 -0.004   0.030   0.000   0.184  -0.004  -0.000  -0.183   0.005   0.005   0.003  -0.038  -0.003   0.001  -0.003  -0.001   0.019
  0.000  -0.001   0.005   0.000  -0.110  -0.005  -0.001   0.112  -0.027   0.004   0.001   0.030  -0.003   0.015  -0.002  -0.000
  0.000  -0.001   0.261  -0.004  -0.003  -0.260   0.003   0.002   0.000   0.011  -0.002  -0.001  -0.055  -0.000  -0.006   0.001
  0.000  -0.000   0.016  -0.002  -0.000  -0.014   0.002  -0.000  -0.001   0.004  -0.000  -0.002   0.000   0.000  -0.002  -0.000
 total augmentation occupancy for first ion, spin component:           2
  0.000  -0.000  -0.000  -0.000   0.000   0.000   0.000  -0.000   0.000  -0.000   0.000  -0.000   0.000  -0.000   0.000  -0.000
 -0.000  -0.000  -0.000  -0.000   0.000   0.000   0.000  -0.000   0.000  -0.000   0.000  -0.000   0.000  -0.000   0.000  -0.000
 -0.000  -0.000  -0.000   0.000   0.000   0.000  -0.000  -0.000  -0.000  -0.000   0.000   0.000   0.000   0.000   0.000  -0.000
 -0.000  -0.000   0.000   0.000  -0.000  -0.000  -0.000   0.000   0.000  -0.000  -0.000  -0.000  -0.000  -0.000   0.000   0.000
  0.000   0.000   0.000  -0.000   0.000  -0.000   0.000  -0.000  -0.000  -0.000   0.000   0.000  -0.000   0.000   0.000  -0.000
  0.000   0.000   0.000  -0.000  -0.000  -0.000   0.000   0.000   0.000   0.000  -0.000  -0.000  -0.000  -0.000  -0.000   0.000
  0.000   0.000  -0.000  -0.000   0.000   0.000   0.000  -0.000  -0.000   0.000   0.000   0.000   0.000   0.000  -0.000  -0.000
 -0.000  -0.000  -0.000   0.000  -0.000   0.000  -0.000   0.000   0.000   0.000  -0.000  -0.000   0.000  -0.000  -0.000   0.000
  0.000   0.000  -0.000   0.000  -0.000   0.000  -0.000   0.000  -0.000   0.000   0.000   0.000   0.000   0.000  -0.000  -0.000
 -0.000  -0.000  -0.000  -0.000  -0.000   0.000   0.000   0.000   0.000  -0.000  -0.000  -0.000   0.000   0.000   0.000   0.000
  0.000   0.000   0.000  -0.000   0.000  -0.000   0.000  -0.000   0.000  -0.000   0.000  -0.000   0.000  -0.000  -0.000  -0.000
 -0.000  -0.000   0.000  -0.000   0.000  -0.000   0.000  -0.000   0.000  -0.000  -0.000  -0.000  -0.000  -0.000   0.000   0.000
  0.000   0.000   0.000  -0.000  -0.000  -0.000   0.000   0.000   0.000   0.000   0.000  -0.000  -0.000  -0.000  -0.000  -0.000
 -0.000  -0.000   0.000  -0.000   0.000  -0.000   0.000  -0.000   0.000   0.000  -0.000  -0.000  -0.000  -0.000  -0.000   0.000
  0.000   0.000   0.000   0.000   0.000  -0.000  -0.000  -0.000  -0.000   0.000  -0.000   0.000  -0.000  -0.000  -0.000  -0.000
 -0.000  -0.000  -0.000   0.000  -0.000   0.000  -0.000   0.000  -0.000   0.000  -0.000   0.000  -0.000   0.000  -0.000   0.000
  0.000   0.000  -0.000   0.000  -0.000   0.000  -0.000   0.000  -0.000   0.000   0.000   0.000   0.000   0.000  -0.000  -0.000
 -0.000  -0.000  -0.000   0.000   0.000   0.000  -0.000  -0.000  -0.000   0.000  -0.000   0.000   0.000   0.000   0.000   0.000
 -0.000  -0.000   0.000   0.000   0.000  -0.000  -0.000  -0.000  -0.000   0.000  -0.000   0.000   0.000   0.000   0.000   0.000
  0.000   0.000  -0.000   0.000   0.000   0.000  -0.000  -0.000  -0.000  -0.000   0.000   0.000   0.000   0.000  -0.000  -0.000
 -0.000  -0.000   0.000   0.000   0.000  -0.000  -0.000  -0.000   0.000   0.000  -0.000  -0.000  -0.000  -0.000  -0.000   0.000
 -0.000  -0.000   0.000   0.000   0.000  -0.000  -0.000  -0.000   0.000   0.000  -0.000   0.000   0.000  -0.000  -0.000   0.000
  0.000  -0.000   0.000   0.000  -0.000   0.000  -0.000   0.000  -0.000   0.000  -0.000  -0.000  -0.000   0.000  -0.000   0.000
 -0.000  -0.000   0.000   0.000   0.000  -0.000  -0.000  -0.000   0.000  -0.000   0.000  -0.000   0.000  -0.000   0.000  -0.000
  0.000   0.000   0.000  -0.000   0.000  -0.000   0.000  -0.000   0.000  -0.000  -0.000  -0.000  -0.000  -0.000   0.000   0.000


------------------------ aborting loop because EDIFF is reached ----------------------------------------





 total charge     

# of ion       s       p       d       f       tot
--------------------------------------------------
    1        2.183   6.370   0.942   0.043   9.538
    2        2.183   6.373   0.943   0.044   9.543
    3        2.183   6.370   0.936   0.043   9.532
    4        2.183   6.370   0.937   0.043   9.534
    5        2.200   6.382   0.994   0.044   9.621
    6        2.200   6.316   0.984   0.038   9.538
    7        2.182   6.349   0.933   0.040   9.504
    8        2.196   6.346   0.978   0.041   9.561
    9        0.864   1.379   0.000   0.000   2.243
   10        0.864   1.384   0.000   0.000   2.248
   11        0.865   1.374   0.000   0.000   2.239
   12        0.864   1.365   0.000   0.000   2.229
   13        1.508   2.833   0.019   0.000   4.360
   14        1.507   2.833   0.019   0.000   4.359
   15        1.508   2.832   0.019   0.000   4.359
   16        1.508   2.832   0.019   0.000   4.358
   17        1.509   2.810   0.015   0.000   4.334
   18        1.510   2.832   0.020   0.000   4.362
   19        1.505   2.824   0.014   0.000   4.343
--------------------------------------------------
tot         31.522  76.174   7.772   0.336 115.804




 magnetization (x)

# of ion       s       p       d       f       tot
--------------------------------------------------
    1       -0.000  -0.000   0.000   0.000  -0.000
    2       -0.000   0.000   0.000   0.000   0.000
    3        0.000   0.000   0.000   0.000   0.000
    4        0.000   0.000   0.000  -0.000   0.000
    5       -0.000   0.000   0.000  -0.000   0.000
    6       -0.000   0.000   0.000   0.000  -0.000
    7        0.000   0.000   0.000   0.000   0.000
    8        0.000  -0.000   0.000   0.000   0.000
    9       -0.000   0.000   0.000   0.000   0.000
   10       -0.000   0.000   0.000   0.000   0.000
   11       -0.000  -0.000   0.000   0.000  -0.000
   12       -0.000   0.000   0.000   0.000   0.000
   13        0.000   0.000   0.000   0.000   0.000
   14        0.000   0.000   0.000   0.000   0.000
   15        0.000   0.000  -0.000   0.000   0.000
   16        0.000   0.000  -0.000   0.000   0.000
   17       -0.000   0.000  -0.000   0.000   0.000
   18        0.000   0.000  -0.000   0.000   0.000
   19        0.000   0.000  -0.000   0.000   0.000
--------------------------------------------------
tot         -0.000   0.000   0.000   0.000   0.000


    CHARGE:  cpu time    2.6212: real time    2.6370
    FORLOC:  cpu time    0.1311: real time    0.1318
    FORNL :  cpu time   18.5309: real time   18.6438
    STRESS:  cpu time   54.0707: real time   54.3901
    FORCOR:  cpu time    1.8098: real time    1.8201
    FORHAR:  cpu time    0.3009: real time    0.3025
    MIXING:  cpu time    0.0254: real time    0.0256
    OFIELD:  cpu time    0.0000: real time    0.0000

  FORCE on cell =-STRESS in cart. coord.  units (eV):
  Direction    XX          YY          ZZ          XY          YZ          ZX
  --------------------------------------------------------------------------------------
  Alpha Z   490.14769   490.14769   490.14769
  Ewald     528.80666   579.64375 -6637.71549    48.61184     8.90612   -24.84781
  Hartree  3938.40917  3962.20922 -2711.31174    22.71972     5.90407    -9.44261
  E(xc)    -597.55003  -597.39944  -597.97982     0.10589     0.01591    -0.03413
  Local   -6605.57564 -6679.11789  7231.40894   -72.13184   -15.60653    35.25948
  n-local   536.58270   537.16622   540.77931     0.27266    -0.03266     0.31312
  augment  -143.52688  -143.31990  -142.31469     0.09864    -0.01944     0.10725
  Kinetic  1847.17646  1845.52644  1827.34568     0.91563     1.33781    -3.81565
  Fock        0.00000     0.00000     0.00000     0.00000     0.00000     0.00000
  -------------------------------------------------------------------------------------
  Total      -5.52986    -5.14390     0.35990     0.59253     0.50529    -2.46034
  in kB     -15.26419   -14.19882     0.99344     1.63558     1.39477    -6.79133
  external pressure =       -9.49 kB  Pullay stress =        0.00 kB


 VOLUME and BASIS-vectors are now :
 -----------------------------------------------------------------------------
  energy-cutoff  :      520.00
  volume of cell :      580.43
      direct lattice vectors                 reciprocal lattice vectors
     7.770644000  0.000004000  0.000000000     0.128689463 -0.000000038  0.000000012
     0.000002000  6.729576000  0.000000000    -0.000000076  0.148597772  0.000000013
    -0.000001000 -0.000001000 11.099577000     0.000000000  0.000000000  0.090093523

  length of vectors
     7.770644000  6.729576000 11.099577000     0.128689463  0.148597772  0.090093523


 FORCES acting on ions
    electron-ion (+dipol)            ewald-force                    non-local-force                 convergence-correction
 -----------------------------------------------------------------------------------------------
   0.599E+01 0.694E+00 -.339E+03   -.595E+01 -.640E+00 0.335E+03   -.688E-01 -.559E-01 0.455E+01   -.363E-04 0.864E-04 -.290E-04
   -.519E+01 -.344E+01 -.361E+03   0.521E+01 0.348E+01 0.356E+03   -.496E-01 -.328E-01 0.450E+01   -.392E-04 -.904E-05 -.144E-04
   0.330E+01 -.658E+01 -.366E+03   -.332E+01 0.587E+01 0.362E+03   -.186E-01 0.720E+00 0.419E+01   -.258E-03 0.213E-03 0.624E-04
   -.991E+00 0.826E+01 -.359E+03   0.112E+01 -.775E+01 0.354E+03   -.161E+00 -.497E+00 0.453E+01   -.314E-04 0.249E-03 -.972E-04
   0.510E+02 -.310E+02 0.430E+03   -.497E+02 0.305E+02 -.425E+03   -.130E+01 0.484E+00 -.504E+01   0.906E-04 0.383E-03 -.115E-03
   -.448E+02 -.564E+02 0.503E+03   0.440E+02 0.550E+02 -.494E+03   0.796E+00 0.138E+01 -.850E+01   -.299E-03 0.173E-03 -.180E-03
   -.230E+02 0.166E+02 0.438E+03   0.228E+02 -.170E+02 -.432E+03   0.118E+00 0.383E+00 -.537E+01   -.152E-03 0.105E-03 0.166E-03
   0.183E+02 0.681E+02 0.468E+03   -.182E+02 -.661E+02 -.461E+03   -.882E-01 -.193E+01 -.667E+01   -.119E-03 0.129E-03 0.299E-04
   -.257E+01 -.131E+02 0.209E+02   0.250E+01 0.131E+02 -.210E+02   0.339E-01 0.454E-01 0.166E+00   -.194E-04 -.817E-04 0.230E-04
   0.797E+00 0.715E+01 0.123E+02   -.700E+00 -.708E+01 -.126E+02   -.148E+00 -.488E-01 0.275E+00   0.182E-05 -.198E-04 -.168E-04
   0.773E+01 0.632E+01 0.207E+02   -.767E+01 -.622E+01 -.208E+02   -.101E+00 -.114E+00 -.118E-02   0.487E-04 -.372E-04 -.354E-04
   -.757E+01 0.176E+01 0.395E+02   0.754E+01 -.181E+01 -.395E+02   -.951E-03 0.701E-01 0.422E-01   -.826E-04 0.163E-03 -.404E-04
   0.766E+01 -.217E+01 -.379E+03   -.765E+01 0.219E+01 0.381E+03   -.338E-01 -.186E-01 -.240E+01   0.282E-04 -.666E-04 0.276E-04
   -.671E+01 -.387E+01 -.387E+03   0.673E+01 0.385E+01 0.390E+03   -.436E-01 0.232E-01 -.236E+01   -.577E-04 -.110E-03 0.348E-04
   -.416E+01 0.967E+00 -.376E+03   0.419E+01 -.971E+00 0.379E+03   -.604E-01 0.104E-01 -.241E+01   -.475E-04 0.768E-05 0.414E-04
   0.439E+01 0.516E+01 -.384E+03   -.438E+01 -.518E+01 0.386E+03   -.268E-01 0.194E-01 -.238E+01   0.289E-04 0.881E-04 0.375E-04
   -.671E+01 0.590E+01 0.324E+03   0.638E+01 -.590E+01 -.326E+03   0.103E+01 -.110E+00 0.242E+01   -.533E-07 -.190E-04 0.910E-05
   0.209E+02 -.419E+01 0.358E+03   -.209E+02 0.430E+01 -.361E+03   -.117E+00 -.187E+00 0.228E+01   0.396E-04 -.776E-05 -.373E-04
   -.180E+02 -.315E+00 0.348E+03   0.180E+02 0.304E+00 -.350E+03   -.102E+00 0.455E-01 0.247E+01   -.390E-04 -.785E-04 0.218E-04
 -----------------------------------------------------------------------------------------------
   0.347E+00 -.192E+00 0.969E+01   0.711E-14 0.622E-14 0.568E-12   -.342E+00 0.188E+00 -.970E+01   -.943E-03 0.117E-02 -.112E-03


 POSITION                                       TOTAL-FORCE (eV/Angst)
 -----------------------------------------------------------------------------------
      7.70501      2.23240      1.29913        -0.030830     -0.000988     -0.020639
      3.84681      2.23991      1.33110        -0.037482      0.002563      0.006339
      1.89609      5.55597      1.35169        -0.032087      0.008033     -0.006224
      5.77149      5.57959      1.32178        -0.033398      0.014159      0.001449
      1.92760      1.08280      9.90870        -0.013064     -0.011775     -0.018983
      5.70225      1.04367      9.85471        -0.091627      0.035769     -0.025798
      3.78339      4.44521      9.78179        -0.017593     -0.007198      0.000023
      7.71175      4.54872      9.85115        -0.064296      0.045039      0.016717
      7.67043     -0.02667     11.07563        -0.032620      0.003735     -0.004590
      3.84620      0.00128     -0.02658        -0.051141      0.018593      0.004758
      1.87646      3.37197     11.11085        -0.040731     -0.009634     -0.025001
      5.76066      3.31515     11.02013        -0.038838      0.018145      0.010076
      1.89658      1.10113      3.45233        -0.030382      0.004567      0.007710
      5.78927      1.09533      3.46896        -0.023155      0.007211     -0.002766
      3.85297      4.46476      3.49041        -0.028250      0.006712     -0.002515
      7.72106      4.45852      3.48177        -0.025366      0.001325     -0.011147
      3.02069      2.44035      7.44336         0.706894     -0.102171      0.130041
      1.70934      5.77936      7.66042        -0.073149     -0.068260     -0.067469
      5.72997      5.59361      7.59034        -0.042885      0.034175      0.008019
 -----------------------------------------------------------------------------------
    total drift:                                0.003717     -0.002994     -0.009870


--------------------------------------------------------------------------------------------------------



  FREE ENERGIE OF THE ION-ELECTRON SYSTEM (eV)
  ---------------------------------------------------
  free  energy   TOTEN  =      -116.65936371 eV

  energy  without entropy=     -116.58250398  energy(sigma->0) =     -116.62093385

 d Force =-0.5514026E-04[-0.566E-04,-0.536E-04]  d Energy =-0.6362088E-04 0.848E-05
 d Force =-0.1647677E-01[-0.165E-01,-0.165E-01]  d Ewald  =-0.1647677E-01 0.156E-08


--------------------------------------------------------------------------------------------------------


    POTLOK:  cpu time    1.8481: real time    1.8581


--------------------------------------------------------------------------------------------------------


 NEB: the previous image is higher in energy: T
 NEB: the next image is higher in energy    : F
 NEB: only prev energy greater

 NEB: Tangent
 ----------------------------------------------
     -0.04222     -0.00072     -0.02815
     -0.04957      0.00357      0.00874
     -0.04216      0.01073     -0.00756
     -0.04454      0.02038      0.00131
     -0.01803     -0.01399     -0.02549
     -0.12183      0.04841     -0.03549
     -0.02359     -0.00869      0.00115
     -0.08503      0.06058      0.02236
     -0.04435      0.00662     -0.00633
     -0.06776      0.02600      0.00635
     -0.05334     -0.01310     -0.03232
     -0.05110      0.02389      0.01409
     -0.04081      0.00594      0.00984
     -0.03144      0.00907     -0.00332
     -0.03694      0.00914     -0.00383
     -0.03534      0.00080     -0.01462
      0.92807     -0.13736      0.16885
     -0.09259     -0.09333     -0.08601
     -0.05487      0.04208      0.01042

 NEB: forces: par spring, perp REAL, dneb     0.009373    0.007504    0.000000
 NEB: distance to prev, next image, angle between     0.589703    0.587828  166.520993
 NEB: projections on to tangent (spring, REAL)    -0.009373    0.761141

 stress matrix after NEB project (eV)
     -5.52986      0.59253     -2.46034
      0.59253     -5.14390      0.50529
     -2.46034      0.50529      0.35990
  FORCES: max atom, RMS     0.008984    0.002754
  FORCE total and by dimension    0.012007    0.008201
  Stress total and by dimension    8.395716    5.529862
 Quasi-Newton relaxation of ions (Broydens 2nd method)
  g(Force)  = 0.129E-03   g(Stress)= 0.000E+00

 retain information from N=  2 steps
 eigenvalues of (default step * inverse Hessian matrix)
  average eigenvalue of G=   7.2069
 eigenvalue spectrum of G is  7.2069  7.2069


--------------------------------------------------------------------------------------------------------


  
 reached required accuracy - stopping structural energy minimisation
     LOOP+:  cpu time  698.0033: real time  700.6997
    4ORBIT:  cpu time    0.0000: real time    0.0000



 total charge     

# of ion       s       p       d       f       tot
--------------------------------------------------
    1        2.183   6.370   0.942   0.043   9.538
    2        2.183   6.373   0.943   0.044   9.543
    3        2.183   6.370   0.936   0.043   9.532
    4        2.183   6.370   0.937   0.043   9.534
    5        2.200   6.382   0.994   0.044   9.621
    6        2.200   6.316   0.984   0.038   9.538
    7        2.182   6.349   0.933   0.040   9.504
    8        2.196   6.346   0.978   0.041   9.561
    9        0.864   1.379   0.000   0.000   2.243
   10        0.864   1.384   0.000   0.000   2.248
   11        0.865   1.374   0.000   0.000   2.239
   12        0.864   1.365   0.000   0.000   2.229
   13        1.508   2.833   0.019   0.000   4.360
   14        1.507   2.833   0.019   0.000   4.359
   15        1.508   2.832   0.019   0.000   4.359
   16        1.508   2.832   0.019   0.000   4.358
   17        1.509   2.810   0.015   0.000   4.334
   18        1.510   2.832   0.020   0.000   4.362
   19        1.505   2.824   0.014   0.000   4.343
--------------------------------------------------
tot         31.522  76.174   7.772   0.336 115.804




 magnetization (x)

# of ion       s       p       d       f       tot
--------------------------------------------------
    1       -0.000  -0.000   0.000   0.000  -0.000
    2       -0.000   0.000   0.000   0.000   0.000
    3        0.000   0.000   0.000   0.000   0.000
    4        0.000   0.000   0.000  -0.000   0.000
    5       -0.000   0.000   0.000  -0.000   0.000
    6       -0.000   0.000   0.000   0.000  -0.000
    7        0.000   0.000   0.000   0.000   0.000
    8        0.000  -0.000   0.000   0.000   0.000
    9       -0.000   0.000   0.000   0.000   0.000
   10       -0.000   0.000   0.000   0.000   0.000
   11       -0.000  -0.000   0.000   0.000  -0.000
   12       -0.000   0.000   0.000   0.000   0.000
   13        0.000   0.000   0.000   0.000   0.000
   14        0.000   0.000   0.000   0.000   0.000
   15        0.000   0.000  -0.000   0.000   0.000
   16        0.000   0.000  -0.000   0.000   0.000
   17       -0.000   0.000  -0.000   0.000   0.000
   18        0.000   0.000  -0.000   0.000   0.000
   19        0.000   0.000  -0.000   0.000   0.000
--------------------------------------------------
tot         -0.000   0.000   0.000   0.000   0.000



 total amount of memory used by VASP MPI-rank0   265325. kBytes
=======================================================================

   base      :      30000. kBytes
   nonlr-proj:       9746. kBytes
   fftplans  :      25286. kBytes
   grid      :      66476. kBytes
   one-center:        420. kBytes
   wavefun   :     133397. kBytes

  
  
 General timing and accounting informations for this job:
 ========================================================
  
                  Total CPU time used (sec):    25491.598
                            User time (sec):    24683.992
                          System time (sec):      807.605
                         Elapsed time (sec):    25596.629
  
                   Maximum memory used (kb):      477216.
                   Average memory used (kb):           0.
  
                          Minor page faults:       813136
                          Major page faults:            0
                 Voluntary context switches:         6406
