 vasp.5.4.4.18Apr17-6-g9f103f2a35 (build Feb  5 2022 00:56:52) complex           
 executed on             LinuxGNU date 2022.02.08  02:25:48
 running on   14 total cores
 distrk:  each k-point on   14 cores,    1 groups
 distr:  one band on NCORES_PER_BAND=  14 cores,    1 groups


--------------------------------------------------------------------------------------------------------


 INCAR:
 POTCAR:    PAW_PBE Y_sv 25May2007                
 POTCAR:    PAW_PBE C 08Apr2002                   
 POTCAR:    PAW_PBE I 08Apr2002                   

 ----------------------------------------------------------------------------- 
|                                                                             |
|           W    W    AA    RRRRR   N    N  II  N    N   GGGG   !!!           |
|           W    W   A  A   R    R  NN   N  II  NN   N  G    G  !!!           |
|           W    W  A    A  R    R  N N  N  II  N N  N  G       !!!           |
|           W WW W  AAAAAA  RRRRR   N  N N  II  N  N N  G  GGG   !            |
|           WW  WW  A    A  R   R   N   NN  II  N   NN  G    G                |
|           W    W  A    A  R    R  N    N  II  N    N   GGGG   !!!           |
|                                                                             |
|      For optimal performance we recommend to set                            |
|        NCORE= 4 - approx SQRT( number of cores)                             |
|      NCORE specifies how many cores store one orbital (NPAR=cpu/NCORE).     |
|      This setting can  greatly improve the performance of VASP for DFT.     |
|      The default,   NCORE=1            might be grossly inefficient         |
|      on modern multi-core architectures or massively parallel machines.     |
|      Do your own testing !!!!                                               |
|      Unfortunately you need to use the default for GW and RPA calculations. |
|      (for HF NCORE is supported but not extensively tested yet)             |
|                                                                             |
 ----------------------------------------------------------------------------- 

 POTCAR:    PAW_PBE Y_sv 25May2007                
   VRHFIN =Y: 4s4p5s4d                                                          
   LEXCH  = PE                                                                  
   EATOM  =  1046.9140 eV,   76.9460 Ry                                         
                                                                                
   TITEL  = PAW_PBE Y_sv 25May2007                                              
   LULTRA =        F    use ultrasoft PP ?                                      
   IUNSCR =        1    unscreen: 0-lin 1-nonlin 2-no                           
   RPACOR =    2.200    partial core radius                                     
   POMASS =   88.906; ZVAL   =   11.000    mass and valenz                      
   RCORE  =    2.800    outmost cutoff radius                                   
   RWIGS  =    3.430; RWIGS  =    1.815    wigner-seitz radius (au A)           
   ENMAX  =  202.626; ENMIN  =  151.970 eV                                      
   RCLOC  =    2.212    cutoff for local pot                                    
   LCOR   =        T    correct aug charges                                     
   LPAW   =        T    paw PP                                                  
   EAUG   =  470.889                                                            
   DEXC   =    0.000                                                            
   RMAX   =    2.863    core radius for proj-oper                               
   RAUG   =    1.300    factor for augmentation sphere                          
   RDEP   =    2.926    radius for radial grids                                 
   RDEPT  =    2.280    core radius for aug-charge                              
                                                                                
   Atomic configuration                                                         
   11 entries                                                                   
     n  l   j            E        occ.                                          
     1  0  0.50    -16863.0720   2.0000                                         
     2  0  0.50     -2309.2881   2.0000                                         
     2  1  1.50     -2055.5536   6.0000                                         
     3  0  0.50      -367.1837   2.0000                                         
     3  1  1.50      -284.8912   6.0000                                         
     3  2  2.50      -149.4324  10.0000                                         
     4  0  0.50       -46.3345   2.0000                                         
     5  0  0.50        -3.6387   1.0000                                         
     4  1  1.50       -26.3769   6.0000                                         
     4  2  2.50        -1.6291   2.0000                                         
     4  3  2.50        -1.3606   0.0000                                         
   Description                                                                  
     l       E           TYP  RCUT    TYP  RCUT                                 
     0    -46.3344714     23  2.600                                             
     0     -3.6387002     23  2.700                                             
     1    -26.3769044     23  2.600                                             
     1    -27.7374870     23  2.600                                             
     2     -1.6291019     23  2.600                                             
     2      0.1354037     23  2.600                                             
     3     -1.3605826     23  2.800                                             
  local pseudopotential read in
  partial core-charges read in
  partial kinetic energy density read in
  atomic valenz-charges read in
  non local Contribution for L=           0  read in
    real space projection operators read in
  non local Contribution for L=           0  read in
    real space projection operators read in
  non local Contribution for L=           1  read in
    real space projection operators read in
  non local Contribution for L=           1  read in
    real space projection operators read in
  non local Contribution for L=           2  read in
    real space projection operators read in
  non local Contribution for L=           2  read in
    real space projection operators read in
  non local Contribution for L=           3  read in
    real space projection operators read in
    PAW grid and wavefunctions read in

   number of l-projection  operators is LMAX  =           7
   number of lm-projection operators is LMMAX =          25

 POTCAR:    PAW_PBE C 08Apr2002                   
   VRHFIN =C: s2p2                                                              
   LEXCH  = PE                                                                  
   EATOM  =   147.1560 eV,   10.8157 Ry                                         
                                                                                
   TITEL  = PAW_PBE C 08Apr2002                                                 
   LULTRA =        F    use ultrasoft PP ?                                      
   IUNSCR =        1    unscreen: 0-lin 1-nonlin 2-no                           
   RPACOR =    1.200    partial core radius                                     
   POMASS =   12.011; ZVAL   =    4.000    mass and valenz                      
   RCORE  =    1.500    outmost cutoff radius                                   
   RWIGS  =    1.630; RWIGS  =    0.863    wigner-seitz radius (au A)           
   ENMAX  =  400.000; ENMIN  =  300.000 eV                                      
   ICORE  =        2    local potential                                         
   LCOR   =        T    correct aug charges                                     
   LPAW   =        T    paw PP                                                  
   EAUG   =  644.873                                                            
   DEXC   =    0.000                                                            
   RMAX   =    1.529    core radius for proj-oper                               
   RAUG   =    1.300    factor for augmentation sphere                          
   RDEP   =    1.501    radius for radial grids                                 
   RDEPT  =    1.300    core radius for aug-charge                              
                                                                                
   Atomic configuration                                                         
    4 entries                                                                   
     n  l   j            E        occ.                                          
     1  0  0.50      -273.3789   2.0000                                         
     2  0  0.50       -13.7508   2.0000                                         
     2  1  0.50        -5.2854   2.0000                                         
     3  2  1.50        -5.4423   0.0000                                         
   Description                                                                  
     l       E           TYP  RCUT    TYP  RCUT                                 
     0    -13.7508458     23  1.200                                             
     0     -8.2022199     23  1.200                                             
     1     -5.2854383     23  1.500                                             
     1     34.0145650     23  1.500                                             
     2     -5.4423304      7  1.500                                             
  local pseudopotential read in
  partial core-charges read in
  partial kinetic energy density read in
  atomic valenz-charges read in
  non local Contribution for L=           0  read in
    real space projection operators read in
  non local Contribution for L=           0  read in
    real space projection operators read in
  non local Contribution for L=           1  read in
    real space projection operators read in
  non local Contribution for L=           1  read in
    real space projection operators read in
    PAW grid and wavefunctions read in

   number of l-projection  operators is LMAX  =           4
   number of lm-projection operators is LMMAX =           8

 POTCAR:    PAW_PBE I 08Apr2002                   
   VRHFIN =I : s2p5                                                             
   LEXCH  = PE                                                                  
   EATOM  =   315.8678 eV,   23.2156 Ry                                         
                                                                                
   TITEL  = PAW_PBE I 08Apr2002                                                 
   LULTRA =        F    use ultrasoft PP ?                                      
   IUNSCR =        1    unscreen: 0-lin 1-nonlin 2-no                           
   RPACOR =    2.200    partial core radius                                     
   POMASS =  126.904; ZVAL   =    7.000    mass and valenz                      
   RCORE  =    2.300    outmost cutoff radius                                   
   RWIGS  =    2.810; RWIGS  =    1.487    wigner-seitz radius (au A)           
   ENMAX  =  175.647; ENMIN  =  131.735 eV                                      
   ICORE  =        3    local potential                                         
   LCOR   =        T    correct aug charges                                     
   LPAW   =        T    paw PP                                                  
   EAUG   =  370.139                                                            
   DEXC   =    0.000                                                            
   RMAX   =    2.359    core radius for proj-oper                               
   RAUG   =    1.300    factor for augmentation sphere                          
   RDEP   =    2.392    radius for radial grids                                 
   RDEPT  =    2.170    core radius for aug-charge                              
                                                                                
   Atomic configuration                                                         
   13 entries                                                                   
     n  l   j            E        occ.                                          
     1  0  0.50    -32976.3739   2.0000                                         
     2  0  0.50     -5094.5933   2.0000                                         
     2  1  1.50     -4572.0131   6.0000                                         
     3  0  0.50     -1028.2813   2.0000                                         
     3  1  1.50      -859.0250   6.0000                                         
     3  2  2.50      -605.7620  10.0000                                         
     4  0  0.50      -180.5540   2.0000                                         
     4  1  1.50      -127.5306   6.0000                                         
     4  2  2.50       -50.2720  10.0000                                         
     5  0  0.50       -17.4058   2.0000                                         
     5  1  0.50        -7.0851   5.0000                                         
     5  2  1.50        -7.0750   0.0000                                         
     4  3  2.50        -7.0750   0.0000                                         
   Description                                                                  
     l       E           TYP  RCUT    TYP  RCUT                                 
     0    -17.4058016     23  2.300                                             
     0    -18.7663842     23  2.300                                             
     1     -7.0850686     23  2.300                                             
     1     -4.2150896     23  2.300                                             
     2     -7.0750295     23  2.300                                             
     3     -1.3605826     23  2.300                                             
  local pseudopotential read in
  partial core-charges read in
  partial kinetic energy density read in
  atomic valenz-charges read in
  non local Contribution for L=           0  read in
    real space projection operators read in
  non local Contribution for L=           0  read in
    real space projection operators read in
  non local Contribution for L=           1  read in
    real space projection operators read in
  non local Contribution for L=           1  read in
    real space projection operators read in
  non local Contribution for L=           2  read in
    real space projection operators read in
    PAW grid and wavefunctions read in

   number of l-projection  operators is LMAX  =           5
   number of lm-projection operators is LMMAX =          13

 Optimization of the real space projectors (new method)

 maximal supplied QI-value         = 13.42
 optimisation between [QCUT,QGAM] = [ 11.67, 23.35] = [ 38.16,152.62] Ry 
 Optimized for a Real-space Cutoff    1.68 Angstroem

   l    n(q)    QCUT    max X(q) W(low)/X(q) W(high)/X(q)  e(spline) 
   0     12    11.673    14.902    0.22E-04    0.24E-05    0.52E-07
   0     12    11.673     9.294    0.34E-04    0.58E-05    0.89E-07
   1     11    11.673    69.520    0.10E-04    0.47E-04    0.49E-06
   1     11    11.673    72.085    0.10E-04    0.48E-04    0.50E-06
   2     11    11.673    62.934    0.94E-04    0.14E-04    0.82E-06
   2     11    11.673    49.749    0.91E-04    0.13E-04    0.79E-06
   3     10    11.673     8.311    0.92E-04    0.21E-04    0.59E-06
 Optimization of the real space projectors (new method)

 maximal supplied QI-value         = 25.13
 optimisation between [QCUT,QGAM] = [ 11.56, 23.12] = [ 37.43,149.72] Ry 
 Optimized for a Real-space Cutoff    1.04 Angstroem

   l    n(q)    QCUT    max X(q) W(low)/X(q) W(high)/X(q)  e(spline) 
   0      7    11.561   115.676    0.20E-03    0.60E-03    0.21E-06
   0      7    11.561    87.132    0.20E-03    0.59E-03    0.21E-06
   1      7    11.561     4.429    0.23E-03    0.35E-03    0.15E-06
   1      7    11.561     2.733    0.18E-03    0.25E-03    0.12E-06
 Optimization of the real space projectors (new method)

 maximal supplied QI-value         = 16.25
 optimisation between [QCUT,QGAM] = [ 11.54, 23.24] = [ 37.28,151.24] Ry 
 Optimized for a Real-space Cutoff    1.40 Angstroem

   l    n(q)    QCUT    max X(q) W(low)/X(q) W(high)/X(q)  e(spline) 
   0     10    11.539   194.483    0.48E-04    0.89E-04    0.13E-06
   0     10    11.539   190.334    0.47E-04    0.86E-04    0.12E-06
   1      9    11.539   116.687    0.15E-03    0.73E-04    0.13E-06
   1      9    11.539    88.696    0.15E-03    0.72E-04    0.13E-06
   2      9    11.539     4.877    0.99E-05    0.58E-04    0.56E-07
  PAW_PBE Y_sv 25May2007                :
 energy of atom  1       EATOM=-1046.9140
 kinetic energy error for atom=    0.0008 (will be added to EATOM!!)
  PAW_PBE C 08Apr2002                   :
 energy of atom  2       EATOM= -147.1560
 kinetic energy error for atom=    0.0071 (will be added to EATOM!!)
  PAW_PBE I 08Apr2002                   :
 energy of atom  3       EATOM= -315.8678
 kinetic energy error for atom=    0.0009 (will be added to EATOM!!)


 POSCAR: Y8 C4 I7                                
  positions in direct lattice
  No initial velocities read in
 exchange correlation table for  LEXCH =        8
   RHO(1)=    0.500       N(1)  =     2000
   RHO(2)=  100.500       N(2)  =     4000

 VTST: version 3.2, (02/03/18)

 CHAIN: initializing optimizer
 
 OPT: Using VASP Conjugate-Gradient optimizer
 CHAIN: Read ICHAIN            0

 POSCAR: Y8 C4 I7                                
  positions in direct lattice
  No initial velocities read in



--------------------------------------------------------------------------------------------------------


 ion  position               nearest neighbor table
   1  0.000  0.333  0.118-  12 2.60  11 2.60   9 2.60  14 3.12  16 3.12  13 3.12   8 3.44   5 3.44
                             6 3.44   3 3.89   4 3.89   2 3.89   2 3.89   4 3.89   3 3.89
   2  0.500  0.333  0.118-  11 2.60  12 2.60  10 2.60  13 3.12  15 3.12  14 3.12   7 3.44   6 3.44
                             5 3.44   3 3.89   4 3.89   1 3.89   1 3.89   4 3.89   3 3.89
   3  0.250  0.833  0.118-  11 2.60   9 2.60  10 2.60  16 3.12  15 3.12  13 3.12   7 3.44   8 3.44
                             5 3.44   2 3.89   1 3.89   4 3.89   4 3.89   1 3.89   2 3.89
   4  0.750  0.833  0.118-  10 2.60   9 2.60  12 2.60  15 3.12  14 3.12  16 3.12   6 3.44   8 3.44
                             7 3.44   2 3.89   1 3.89   3 3.89   3 3.89   2 3.89   1 3.89
   5  0.250  0.167  0.882-  11 2.60  10 2.60   9 2.60  18 3.12  17 3.12   1 3.44   2 3.44   3 3.44
                             8 3.89   7 3.89   6 3.89   6 3.89   7 3.89   8 3.89
   6  0.750  0.167  0.882-  12 2.60   9 2.60  10 2.60  17 3.12  19 3.12   4 3.44   2 3.44   1 3.44
                             7 3.89   8 3.89   5 3.89   5 3.89   8 3.89   7 3.89
   7  0.500  0.667  0.882-  12 2.60  11 2.60  10 2.60  17 3.12  19 3.12  18 3.12   2 3.44   3 3.44
                             4 3.44   6 3.89   5 3.89   8 3.89   8 3.89   5 3.89   6 3.89
   8  0.000  0.667  0.882-  11 2.60  12 2.60   9 2.60  19 3.12  18 3.12   1 3.44   3 3.44   4 3.44
                             5 3.89   6 3.89   7 3.89   7 3.89   6 3.89   5 3.89
   9  0.000  0.000  0.000-   4 2.60   3 2.60   6 2.60   5 2.60   1 2.60   8 2.60
  10  0.500  0.000  0.000-   4 2.60   5 2.60   3 2.60   6 2.60   2 2.60   7 2.60
  11  0.250  0.500  0.000-   2 2.60   8 2.60   5 2.60   3 2.60   7 2.60   1 2.60
  12  0.750  0.500  0.000-   1 2.60   7 2.60   6 2.60   2 2.60   8 2.60   4 2.60
  13  0.250  0.167  0.313-   2 3.12   3 3.12   1 3.12
  14  0.750  0.167  0.313-   1 3.12   4 3.12   2 3.12
  15  0.500  0.667  0.313-   4 3.12   2 3.12   3 3.12
  16  0.000  0.667  0.313-   1 3.12   3 3.12   4 3.12
  17  0.500  0.333  0.687-   7 3.12   6 3.12   5 3.12
  18  0.250  0.833  0.687-   5 3.12   7 3.12   8 3.12
  19  0.750  0.833  0.687-   8 3.12   7 3.12   6 3.12


IMPORTANT INFORMATION: All symmetrisations will be switched off!
NOSYMM: (Re-)initialisation of all symmetry stuff for point group C_1.




Automatic generation of k-mesh.
 generate k-points for:    2    2    2
Space group operators:
 irot       det(A)        alpha          n_x          n_y          n_z        tau_x        tau_y        tau_z
    1     1.000000     0.000000     1.000000     0.000000     0.000000     0.000000     0.000000     0.000000
 
 Subroutine IBZKPT returns following result:
 ===========================================
 
 Found      8 irreducible k-points:
 
 Following reciprocal coordinates:
            Coordinates               Weight
  0.000000  0.000000  0.000000      1.000000
  0.500000  0.000000  0.000000      1.000000
  0.000000  0.500000  0.000000      1.000000
  0.500000  0.500000  0.000000      1.000000
  0.000000  0.000000  0.500000      1.000000
  0.500000  0.000000  0.500000      1.000000
  0.000000  0.500000  0.500000      1.000000
  0.500000  0.500000  0.500000      1.000000
 
 Following cartesian coordinates:
            Coordinates               Weight
  0.000000  0.000000  0.000000      1.000000
  0.064345 -0.000000  0.000000      1.000000
 -0.000000  0.074299  0.000000      1.000000
  0.064345  0.074299  0.000000      1.000000
  0.000000  0.000000  0.045047      1.000000
  0.064345 -0.000000  0.045047      1.000000
 -0.000000  0.074299  0.045047      1.000000
  0.064345  0.074299  0.045047      1.000000
 


--------------------------------------------------------------------------------------------------------




 Dimension of arrays:
   k-points           NKPTS =      8   k-points in BZ     NKDIM =      8   number of bands    NBANDS=     97
   number of dos      NEDOS =    301   number of ions     NIONS =     19
   non local maximal  LDIM  =      7   non local SUM 2l+1 LMDIM =     25
   total plane-waves  NPLWV = 252000
   max r-space proj   IRMAX =   8612   max aug-charges    IRDMAX=  31495
   dimension x,y,z NGX =    60 NGY =   50 NGZ =   84
   dimension x,y,z NGXF=   120 NGYF=  100 NGZF=  168
   support grid    NGXF=   120 NGYF=  100 NGZF=  168
   ions per type =               8   4   7
   NGX,Y,Z   is equivalent  to a cutoff of  12.84, 12.35, 12.58 a.u.
   NGXF,Y,Z  is equivalent  to a cutoff of  25.67, 24.70, 25.16 a.u.

 SYSTEM =  unknown system                          
 POSCAR =  Y8 C4 I7                                

 Startparameter for this run:
   NWRITE =      2    write-flag & timer
   PREC   = accura    normal or accurate (medium, high low for compatibility)
   ISTART =      0    job   : 0-new  1-cont  2-samecut
   ICHARG =      1    charge: 1-file 2-atom 10-const
   ISPIN  =      2    spin polarized calculation?
   LNONCOLLINEAR =      F non collinear calculations
   LSORBIT =      F    spin-orbit coupling
   INIWAV =      1    electr: 0-lowe 1-rand  2-diag
   LASPH  =      F    aspherical Exc in radial PAW
   METAGGA=      F    non-selfconsistent MetaGGA calc.

 Electronic Relaxation 1
   ENCUT  =  520.0 eV  38.22 Ry    6.18 a.u.  14.45 12.51 20.64*2*pi/ulx,y,z
   ENINI  =  520.0     initial cutoff
   ENAUG  =  644.9 eV  augmentation charge cutoff
   NELM   =    200;   NELMIN=  4; NELMDL= -5     # of ELM steps 
   EDIFF  = 0.1E-04   stopping-criterion for ELM
   LREAL  =      T    real-space projection
   NLSPLINE    = F    spline interpolate recip. space projectors
   LCOMPAT=      F    compatible to vasp.4.4
   GGA_COMPAT  = T    GGA compatible to vasp.4.4-vasp.4.6
   LMAXPAW     = -100 max onsite density
   LMAXMIX     =    2 max onsite mixed and CHGCAR
   VOSKOWN=      0    Vosko Wilk Nusair interpolation
   ROPT   =   -0.00025  -0.00025  -0.00025
 Ionic relaxation
   EDIFFG = -.2E-01   stopping-criterion for IOM
   NSW    =     99    number of steps for IOM
   NBLOCK =      1;   KBLOCK =     99    inner block; outer block 
   IBRION =      2    ionic relax: 0-MD 1-quasi-New 2-CG
   NFREE  =      1    steps in history (QN), initial steepest desc. (CG)
   ISIF   =      2    stress and relaxation
   IWAVPR =     11    prediction:  0-non 1-charg 2-wave 3-comb
   ISYM   =      0    0-nonsym 1-usesym 2-fastsym
   LCORR  =      T    Harris-Foulkes like correction to forces

   POTIM  = 0.5000    time-step for ionic-motion
   TEIN   =    0.0    initial temperature
   TEBEG  =    0.0;   TEEND  =   0.0 temperature during run
   SMASS  =  -3.00    Nose mass-parameter (am)
   estimated Nose-frequenzy (Omega)   =  0.10E-29 period in steps =****** mass=  -0.138E-26a.u.
   SCALEE = 1.0000    scale energy and forces
   NPACO  =    256;   APACO  = 16.0  distance and # of slots for P.C.
   PSTRESS=    0.0 pullay stress

  Mass of Ions in am
   POMASS =  88.91 12.01126.90
  Ionic Valenz
   ZVAL   =  11.00  4.00  7.00
  Atomic Wigner-Seitz radii
   RWIGS  =  -1.00 -1.00 -1.00
  virtual crystal weights 
   VCA    =   1.00  1.00  1.00
   NELECT =     153.0000    total number of electrons
   NUPDOWN=      -1.0000    fix difference up-down

 DOS related values:
   EMIN   =  10.00;   EMAX   =-10.00  energy-range for DOS
   EFERMI =   0.00
   ISMEAR =     0;   SIGMA  =   0.20  broadening in eV -4-tet -1-fermi 0-gaus

 Electronic relaxation 2 (details)
   IALGO  =     38    algorithm
   LDIAG  =      T    sub-space diagonalisation (order eigenvalues)
   LSUBROT=      F    optimize rotation matrix (better conditioning)
   TURBO    =      0    0=normal 1=particle mesh
   IRESTART =      0    0=no restart 2=restart with 2 vectors
   NREBOOT  =      0    no. of reboots
   NMIN     =      0    reboot dimension
   EREF     =   0.00    reference energy to select bands
   IMIX   =      4    mixing-type and parameters
     AMIX     =   0.40;   BMIX     =  1.00
     AMIX_MAG =   1.60;   BMIX_MAG =  1.00
     AMIN     =   0.10
     WC   =   100.;   INIMIX=   1;  MIXPRE=   1;  MAXMIX= -45

 Intra band minimization:
   WEIMIN = 0.0010     energy-eigenvalue tresh-hold
   EBREAK =  0.26E-07  absolut break condition
   DEPER  =   0.30     relativ break condition  

   TIME   =   0.40     timestep for ELM

  volume/ion in A,a.u.               =      30.55       206.16
  Fermi-wavevector in a.u.,A,eV,Ry     =   1.049675  1.983598 14.991144  1.101818
  Thomas-Fermi vector in A             =   2.184647

 Write flags
   LWAVE        =      F    write WAVECAR
   LDOWNSAMPLE  =      F    k-point downsampling of WAVECAR
   LCHARG       =      T    write CHGCAR
   LVTOT        =      F    write LOCPOT, total local potential
   LVHAR        =      F    write LOCPOT, Hartree potential only
   LELF         =      F    write electronic localiz. function (ELF)
   LORBIT       =     11    0 simple, 1 ext, 2 COOP (PROOUT), +10 PAW based schemes


 Dipole corrections
   LMONO  =      F    monopole corrections only (constant potential shift)
   LDIPOL =      F    correct potential (dipole corrections)
   IDIPOL =      0    1-x, 2-y, 3-z, 4-all directions 
   EPSILON=  1.0000000 bulk dielectric constant

 Exchange correlation treatment:
   GGA     =    --    GGA type
   LEXCH   =     8    internal setting for exchange type
   VOSKOWN=      0    Vosko Wilk Nusair interpolation
   LHFCALC =     F    Hartree Fock is set to
   LHFONE  =     F    Hartree Fock one center treatment
   AEXX    =    0.0000 exact exchange contribution

 Linear response parameters
   LEPSILON=     F    determine dielectric tensor
   LRPA    =     F    only Hartree local field effects (RPA)
   LNABLA  =     F    use nabla operator in PAW spheres
   LVEL    =     F    velocity operator in full k-point grid
   LINTERFAST=   F  fast interpolation
   KINTER  =     0    interpolate to denser k-point grid
   CSHIFT  =0.1000    complex shift for real part using Kramers Kronig
   OMEGAMAX=  -1.0    maximum frequency
   DEG_THRESHOLD= 0.2000000E-02 threshold for treating states as degnerate
   RTIME   =   -0.100 relaxation time in fs
  (WPLASMAI=    0.000 imaginary part of plasma frequency in eV, 0.658/RTIME)
   DFIELD  = 0.0000000 0.0000000 0.0000000 field for delta impulse in time

 Orbital magnetization related:
   ORBITALMAG=     F  switch on orbital magnetization
   LCHIMAG   =     F  perturbation theory with respect to B field
   DQ        =  0.001000  dq finite difference perturbation B field
   LLRAUG    =     F  two centre corrections for induced B field



--------------------------------------------------------------------------------------------------------


 conjugate gradient relaxation of ions
 charge density and potential will be updated during run
 spin polarized calculation
 Variant of blocked Davidson
 Davidson routine will perform the subspace rotation
 perform sub-space diagonalisation
    after iterative eigenvector-optimisation
 modified Broyden-mixing scheme, WC =      100.0
 initial mixing is a Kerker type mixing with AMIX =  0.4000 and BMIX =      1.0000
 Hartree-type preconditioning will be used
 using additional bands           20
 real space projection scheme for non local part
 use partial core corrections
 calculate Harris-corrections to forces   (improved forces if not selfconsistent)
 use gradient corrections 
 use of overlap-Matrix (Vanderbilt PP)
 Gauss-broadening in eV      SIGMA  =   0.20


--------------------------------------------------------------------------------------------------------


  energy-cutoff  :      520.00
  volume of cell :      580.43
      direct lattice vectors                 reciprocal lattice vectors
     7.770644000  0.000004000  0.000000000     0.128689463 -0.000000038  0.000000012
     0.000002000  6.729576000  0.000000000    -0.000000076  0.148597772  0.000000013
    -0.000001000 -0.000001000 11.099577000     0.000000000  0.000000000  0.090093523

  length of vectors
     7.770644000  6.729576000 11.099577000     0.128689463  0.148597772  0.090093523



 k-points in units of 2pi/SCALE and weight: read from INCAR                         
   0.00000000  0.00000000  0.00000000       0.125
   0.06434473 -0.00000002  0.00000001       0.125
  -0.00000004  0.07429889  0.00000001       0.125
   0.06434469  0.07429887  0.00000001       0.125
   0.00000000  0.00000000  0.04504676       0.125
   0.06434473 -0.00000002  0.04504677       0.125
  -0.00000004  0.07429889  0.04504677       0.125
   0.06434469  0.07429887  0.04504677       0.125

 k-points in reciprocal lattice and weights: read from INCAR                         
   0.00000000  0.00000000  0.00000000       0.125
   0.50000000  0.00000000  0.00000000       0.125
   0.00000000  0.50000000  0.00000000       0.125
   0.50000000  0.50000000  0.00000000       0.125
   0.00000000  0.00000000  0.50000000       0.125
   0.50000000  0.00000000  0.50000000       0.125
   0.00000000  0.50000000  0.50000000       0.125
   0.50000000  0.50000000  0.50000000       0.125

 position of ions in fractional coordinates (direct lattice) 
   0.00000000  0.33333400  0.11777000
   0.50000000  0.33333400  0.11777000
   0.25000000  0.83333300  0.11777000
   0.75000000  0.83333400  0.11777000
   0.25000000  0.16666700  0.88223000
   0.75000000  0.16666700  0.88223000
   0.50000000  0.66666600  0.88223000
   0.00000000  0.66666600  0.88223000
   0.00000000  0.00000000  0.00000000
   0.50000000  0.00000000  0.00000000
   0.25000000  0.50000000  0.00000000
   0.75000000  0.50000000  0.00000000
   0.25000100  0.16666700  0.31279500
   0.75000100  0.16666700  0.31279500
   0.50000100  0.66666700  0.31279500
   0.00000000  0.66666700  0.31279500
   0.50000000  0.33333400  0.68720500
   0.25000000  0.83333400  0.68720500
   0.75000000  0.83333300  0.68720500

 position of ions in cartesian coordinates  (Angst):
   0.00000055  2.24319637  1.30719718
   3.88532255  2.24319837  1.30719718
   1.94266255  5.60797864  1.30719718
   5.82798455  5.60798737  1.30719718
   1.94266045  1.12159836  9.79237982
   5.82798245  1.12160036  9.79237982
   3.88532245  4.48638063  9.79237982
   0.00000045  4.48637863  9.79237982
   0.00000000  0.00000000  0.00000000
   3.88532200  0.00000200  0.00000000
   1.94266200  3.36478900  0.00000000
   5.82798400  3.36479100  0.00000000
   1.94266879  1.12159893  3.47189219
   5.82799079  1.12160093  3.47189219
   3.88533079  4.48638793  3.47189219
   0.00000102  4.48638593  3.47189219
   3.88532198  2.24319780  7.62768481
   1.94266198  5.60798480  7.62768481
   5.82798398  5.60798007  7.62768481



--------------------------------------------------------------------------------------------------------


 k-point  1 :   0.0000 0.0000 0.0000  plane waves:   15669
 k-point  2 :   0.5000 0.0000 0.0000  plane waves:   15660
 k-point  3 :   0.0000 0.5000 0.0000  plane waves:   15674
 k-point  4 :   0.5000 0.5000 0.0000  plane waves:   15604
 k-point  5 :   0.0000 0.0000 0.5000  plane waves:   15634
 k-point  6 :   0.5000 0.0000 0.5000  plane waves:   15620
 k-point  7 :   0.0000 0.5000 0.5000  plane waves:   15576
 k-point  8 :   0.5000 0.5000 0.5000  plane waves:   15592

 maximum and minimum number of plane-waves per node :      1140     1090

 maximum number of plane-waves:     15674
 maximum index in each direction: 
   IXMAX=   14   IYMAX=   12   IZMAX=   20
   IXMIN=  -14   IYMIN=  -13   IZMIN=  -21


 real space projection operators:
  total allocation   :      16940.16 KBytes
  max/ min on nodes  :       1304.93       1069.88


 parallel 3D FFT for wavefunctions:
    minimum data exchange during FFTs selected (reduces bandwidth)
 parallel 3D FFT for charge:
    minimum data exchange during FFTs selected (reduces bandwidth)


 total amount of memory used by VASP MPI-rank0    84526. kBytes
=======================================================================

   base      :      30000. kBytes
   nonlr-proj:       4376. kBytes
   fftplans  :       5705. kBytes
   grid      :      15123. kBytes
   one-center:        120. kBytes
   wavefun   :      29202. kBytes

     INWAV:  cpu time    0.0001: real time    0.0004
 Broyden mixing: mesh for mixing (old mesh)
   NGX = 29   NGY = 25   NGZ = 41
  (NGX  =120   NGY  =100   NGZ  =168)
  gives a total of  29725 points

 initial charge density was supplied:
 charge density of overlapping atoms calculated
 number of electron     153.0000000 magnetization      11.4000000
 keeping initial charge density in first step


--------------------------------------------------------------------------------------------------------


 Maximum index for non-local projection operator          922
 Maximum index for augmentation-charges         2693 (set IRDMAX)


--------------------------------------------------------------------------------------------------------


 First call to EWALD:  gamma=   0.212
 Maximum number of real-space cells 3x 3x 2
 Maximum number of reciprocal cells 3x 2x 3

    FEWALD:  cpu time    0.0014: real time    0.0014


--------------------------------------- Iteration      1(   1)  ---------------------------------------


    POTLOK:  cpu time    0.2965: real time    0.2991
    SETDIJ:  cpu time    0.0288: real time    0.0290
     EDDAV:  cpu time   10.5358: real time   10.5995
       DOS:  cpu time    0.0027: real time    0.0027
    --------------------------------------------
      LOOP:  cpu time   10.8639: real time   10.9302

 eigenvalue-minimisations  :  3104
 total energy-change (2. order) : 0.1043397E+04  (-0.6854062E+04)
 number of electron     153.0000000 magnetization      11.4000000
 augmentation part      153.0000000 magnetization      11.4000000

 Free energy of the ion-electron system (eV)
  ---------------------------------------------------
  alpha Z        PSCENC =       490.14769152
  Ewald energy   TEWEN  =     -5551.44447565
  -Hartree energ DENC   =     -5137.84492867
  -exchange      EXHF   =         0.00000000
  -V(xc)+E(xc)   XCENC  =       295.58172366
  PAW double counting   =      8755.10086986    -8465.77839650
  entropy T*S    EENTRO =        -0.12936354
  eigenvalues    EBANDS =      -517.20552759
  atomic energy  EATOM  =     11174.96942390
  Solvation  Ediel_sol  =         0.00000000
  ---------------------------------------------------
  free energy    TOTEN  =      1043.39701701 eV

  energy without entropy =     1043.52638055  energy(sigma->0) =     1043.46169878


--------------------------------------------------------------------------------------------------------




--------------------------------------- Iteration      1(   2)  ---------------------------------------


     EDDAV:  cpu time   11.9901: real time   12.0667
       DOS:  cpu time    0.0027: real time    0.0027
    --------------------------------------------
      LOOP:  cpu time   11.9928: real time   12.0694

 eigenvalue-minimisations  :  3700
 total energy-change (2. order) :-0.1055840E+04  (-0.1013343E+04)
 number of electron     153.0000000 magnetization      11.4000000
 augmentation part      153.0000000 magnetization      11.4000000

 Free energy of the ion-electron system (eV)
  ---------------------------------------------------
  alpha Z        PSCENC =       490.14769152
  Ewald energy   TEWEN  =     -5551.44447565
  -Hartree energ DENC   =     -5137.84492867
  -exchange      EXHF   =         0.00000000
  -V(xc)+E(xc)   XCENC  =       295.58172366
  PAW double counting   =      8755.10086986    -8465.77839650
  entropy T*S    EENTRO =        -0.08168269
  eigenvalues    EBANDS =     -1573.09358735
  atomic energy  EATOM  =     11174.96942390
  Solvation  Ediel_sol  =         0.00000000
  ---------------------------------------------------
  free energy    TOTEN  =       -12.44336191 eV

  energy without entropy =      -12.36167922  energy(sigma->0) =      -12.40252056


--------------------------------------------------------------------------------------------------------




--------------------------------------- Iteration      1(   3)  ---------------------------------------


     EDDAV:  cpu time   13.4678: real time   13.5473
       DOS:  cpu time    0.0028: real time    0.0028
    --------------------------------------------
      LOOP:  cpu time   13.4705: real time   13.5501

 eigenvalue-minimisations  :  4249
 total energy-change (2. order) :-0.1139805E+03  (-0.1123844E+03)
 number of electron     153.0000000 magnetization      11.4000000
 augmentation part      153.0000000 magnetization      11.4000000

 Free energy of the ion-electron system (eV)
  ---------------------------------------------------
  alpha Z        PSCENC =       490.14769152
  Ewald energy   TEWEN  =     -5551.44447565
  -Hartree energ DENC   =     -5137.84492867
  -exchange      EXHF   =         0.00000000
  -V(xc)+E(xc)   XCENC  =       295.58172366
  PAW double counting   =      8755.10086986    -8465.77839650
  entropy T*S    EENTRO =        -0.05200747
  eigenvalues    EBANDS =     -1687.10379872
  atomic energy  EATOM  =     11174.96942390
  Solvation  Ediel_sol  =         0.00000000
  ---------------------------------------------------
  free energy    TOTEN  =      -126.42389806 eV

  energy without entropy =     -126.37189059  energy(sigma->0) =     -126.39789433


--------------------------------------------------------------------------------------------------------




--------------------------------------- Iteration      1(   4)  ---------------------------------------


     EDDAV:  cpu time   16.3834: real time   16.4781
       DOS:  cpu time    0.0027: real time    0.0027
    --------------------------------------------
      LOOP:  cpu time   16.3861: real time   16.4807

 eigenvalue-minimisations  :  5384
 total energy-change (2. order) :-0.1167572E+02  (-0.1164137E+02)
 number of electron     153.0000000 magnetization      11.4000000
 augmentation part      153.0000000 magnetization      11.4000000

 Free energy of the ion-electron system (eV)
  ---------------------------------------------------
  alpha Z        PSCENC =       490.14769152
  Ewald energy   TEWEN  =     -5551.44447565
  -Hartree energ DENC   =     -5137.84492867
  -exchange      EXHF   =         0.00000000
  -V(xc)+E(xc)   XCENC  =       295.58172366
  PAW double counting   =      8755.10086986    -8465.77839650
  entropy T*S    EENTRO =        -0.05295978
  eigenvalues    EBANDS =     -1698.77857055
  atomic energy  EATOM  =     11174.96942390
  Solvation  Ediel_sol  =         0.00000000
  ---------------------------------------------------
  free energy    TOTEN  =      -138.09962220 eV

  energy without entropy =     -138.04666242  energy(sigma->0) =     -138.07314231


--------------------------------------------------------------------------------------------------------




--------------------------------------- Iteration      1(   5)  ---------------------------------------


     EDDAV:  cpu time   14.9636: real time   15.0503
       DOS:  cpu time    0.0028: real time    0.0028
    CHARGE:  cpu time    0.4310: real time    0.4320
    MIXING:  cpu time    0.0085: real time    0.0086
    --------------------------------------------
      LOOP:  cpu time   15.4059: real time   15.4936

 eigenvalue-minimisations  :  4840
 total energy-change (2. order) :-0.8184778E+00  (-0.8181240E+00)
 number of electron     152.9999985 magnetization       7.1553710
 augmentation part        6.4648840 magnetization       6.7944189

 Broyden mixing:
  rms(total) = 0.77283E+01    rms(broyden)= 0.77282E+01
  rms(prec ) = 0.81753E+01
  weight for this iteration     100.00

 Free energy of the ion-electron system (eV)
  ---------------------------------------------------
  alpha Z        PSCENC =       490.14769152
  Ewald energy   TEWEN  =     -5551.44447565
  -Hartree energ DENC   =     -5137.84492867
  -exchange      EXHF   =         0.00000000
  -V(xc)+E(xc)   XCENC  =       295.58172366
  PAW double counting   =      8755.10086986    -8465.77839650
  entropy T*S    EENTRO =        -0.05295338
  eigenvalues    EBANDS =     -1699.59705471
  atomic energy  EATOM  =     11174.96942390
  Solvation  Ediel_sol  =         0.00000000
  ---------------------------------------------------
  free energy    TOTEN  =      -138.91809996 eV

  energy without entropy =     -138.86514657  energy(sigma->0) =     -138.89162326


--------------------------------------------------------------------------------------------------------




--------------------------------------- Iteration      1(   6)  ---------------------------------------


    POTLOK:  cpu time    0.2907: real time    0.2924
    SETDIJ:  cpu time    0.0301: real time    0.0302
     EDDAV:  cpu time   12.7051: real time   12.7853
       DOS:  cpu time    0.0027: real time    0.0028
    CHARGE:  cpu time    0.4300: real time    0.4310
    MIXING:  cpu time    0.0100: real time    0.0101
    --------------------------------------------
      LOOP:  cpu time   13.4686: real time   13.5518

 eigenvalue-minimisations  :  3941
 total energy-change (2. order) : 0.2340380E+02  (-0.1233185E+02)
 number of electron     152.9999987 magnetization       4.2754186
 augmentation part        6.7232032 magnetization       3.8098767

 Broyden mixing:
  rms(total) = 0.66920E+01    rms(broyden)= 0.66919E+01
  rms(prec ) = 0.67199E+01
  weight for this iteration     100.00

 eigenvalues of (default mixing * dielectric matrix)
  average eigenvalue GAMMA=   1.1410
  1.1410

 Free energy of the ion-electron system (eV)
  ---------------------------------------------------
  alpha Z        PSCENC =       490.14769152
  Ewald energy   TEWEN  =     -5551.44447565
  -Hartree energ DENC   =     -5139.30621668
  -exchange      EXHF   =         0.00000000
  -V(xc)+E(xc)   XCENC  =       296.17403040
  PAW double counting   =     10882.23794391   -10608.76503053
  entropy T*S    EENTRO =        -0.05283833
  eigenvalues    EBANDS =     -1659.47482926
  atomic energy  EATOM  =     11174.96942390
  Solvation  Ediel_sol  =         0.00000000
  ---------------------------------------------------
  free energy    TOTEN  =      -115.51430071 eV

  energy without entropy =     -115.46146237  energy(sigma->0) =     -115.48788154


--------------------------------------------------------------------------------------------------------




--------------------------------------- Iteration      1(   7)  ---------------------------------------


    POTLOK:  cpu time    0.2905: real time    0.2918
    SETDIJ:  cpu time    0.0292: real time    0.0293
     EDDAV:  cpu time   13.2771: real time   13.3538
       DOS:  cpu time    0.0027: real time    0.0027
    CHARGE:  cpu time    0.4300: real time    0.4310
    MIXING:  cpu time    0.0087: real time    0.0088
    --------------------------------------------
      LOOP:  cpu time   14.0382: real time   14.1174

 eigenvalue-minimisations  :  4192
 total energy-change (2. order) :-0.1258972E+01  (-0.2052333E+01)
 number of electron     152.9999987 magnetization       1.0524785
 augmentation part        5.4171189 magnetization       0.6110120

 Broyden mixing:
  rms(total) = 0.37909E+01    rms(broyden)= 0.37909E+01
  rms(prec ) = 0.38086E+01
  weight for this iteration     100.00

 eigenvalues of (default mixing * dielectric matrix)
  average eigenvalue GAMMA=   1.5738
  0.7048  2.4428

 Free energy of the ion-electron system (eV)
  ---------------------------------------------------
  alpha Z        PSCENC =       490.14769152
  Ewald energy   TEWEN  =     -5551.44447565
  -Hartree energ DENC   =     -5124.57696058
  -exchange      EXHF   =         0.00000000
  -V(xc)+E(xc)   XCENC  =       294.19156748
  PAW double counting   =     12901.81083216   -12637.44926714
  entropy T*S    EENTRO =        -0.04763594
  eigenvalues    EBANDS =     -1664.37444839
  atomic energy  EATOM  =     11174.96942390
  Solvation  Ediel_sol  =         0.00000000
  ---------------------------------------------------
  free energy    TOTEN  =      -116.77327262 eV

  energy without entropy =     -116.72563668  energy(sigma->0) =     -116.74945465


--------------------------------------------------------------------------------------------------------




--------------------------------------- Iteration      1(   8)  ---------------------------------------


    POTLOK:  cpu time    0.2884: real time    0.2897
    SETDIJ:  cpu time    0.0303: real time    0.0304
     EDDAV:  cpu time   12.8325: real time   12.9066
       DOS:  cpu time    0.0027: real time    0.0027
    CHARGE:  cpu time    0.4296: real time    0.4306
    MIXING:  cpu time    0.0097: real time    0.0097
    --------------------------------------------
      LOOP:  cpu time   13.5931: real time   13.6697

 eigenvalue-minimisations  :  3992
 total energy-change (2. order) :-0.3286893E+00  (-0.6352079E+00)
 number of electron     152.9999987 magnetization       0.7164152
 augmentation part        5.2294642 magnetization       0.3223100

 Broyden mixing:
  rms(total) = 0.12128E+01    rms(broyden)= 0.12128E+01
  rms(prec ) = 0.12615E+01
  weight for this iteration     100.00

 eigenvalues of (default mixing * dielectric matrix)
  average eigenvalue GAMMA=   1.3162
  2.4006  0.9321  0.6159

 Free energy of the ion-electron system (eV)
  ---------------------------------------------------
  alpha Z        PSCENC =       490.14769152
  Ewald energy   TEWEN  =     -5551.44447565
  -Hartree energ DENC   =     -5138.53613504
  -exchange      EXHF   =         0.00000000
  -V(xc)+E(xc)   XCENC  =       293.82792823
  PAW double counting   =     14821.40706545   -14551.98733446
  entropy T*S    EENTRO =        -0.06637698
  eigenvalues    EBANDS =     -1655.41974893
  atomic energy  EATOM  =     11174.96942390
  Solvation  Ediel_sol  =         0.00000000
  ---------------------------------------------------
  free energy    TOTEN  =      -117.10196195 eV

  energy without entropy =     -117.03558497  energy(sigma->0) =     -117.06877346


--------------------------------------------------------------------------------------------------------




--------------------------------------- Iteration      1(   9)  ---------------------------------------


    POTLOK:  cpu time    0.2883: real time    0.2896
    SETDIJ:  cpu time    0.0284: real time    0.0285
     EDDAV:  cpu time   13.5929: real time   13.6712
       DOS:  cpu time    0.0028: real time    0.0028
    CHARGE:  cpu time    0.4308: real time    0.4319
    MIXING:  cpu time    0.0090: real time    0.0090
    --------------------------------------------
      LOOP:  cpu time   14.3521: real time   14.4329

 eigenvalue-minimisations  :  4288
 total energy-change (2. order) : 0.2583868E+00  (-0.1443520E+00)
 number of electron     152.9999987 magnetization       0.5689734
 augmentation part        5.0529934 magnetization       0.3007497

 Broyden mixing:
  rms(total) = 0.24522E+00    rms(broyden)= 0.24522E+00
  rms(prec ) = 0.27192E+00
  weight for this iteration     100.00

 eigenvalues of (default mixing * dielectric matrix)
  average eigenvalue GAMMA=   1.2295
  2.3670  0.9704  0.9704  0.6105

 Free energy of the ion-electron system (eV)
  ---------------------------------------------------
  alpha Z        PSCENC =       490.14769152
  Ewald energy   TEWEN  =     -5551.44447565
  -Hartree energ DENC   =     -5145.73023466
  -exchange      EXHF   =         0.00000000
  -V(xc)+E(xc)   XCENC  =       294.20038656
  PAW double counting   =     14916.23974269   -14644.87570311
  entropy T*S    EENTRO =        -0.07327598
  eigenvalues    EBANDS =     -1650.27713040
  atomic energy  EATOM  =     11174.96942390
  Solvation  Ediel_sol  =         0.00000000
  ---------------------------------------------------
  free energy    TOTEN  =      -116.84357512 eV

  energy without entropy =     -116.77029914  energy(sigma->0) =     -116.80693713


--------------------------------------------------------------------------------------------------------




--------------------------------------- Iteration      1(  10)  ---------------------------------------


    POTLOK:  cpu time    0.2845: real time    0.2858
    SETDIJ:  cpu time    0.0295: real time    0.0296
     EDDAV:  cpu time   13.4512: real time   13.5347
       DOS:  cpu time    0.0028: real time    0.0028
    CHARGE:  cpu time    0.4295: real time    0.4306
    MIXING:  cpu time    0.0103: real time    0.0104
    --------------------------------------------
      LOOP:  cpu time   14.2078: real time   14.2938

 eigenvalue-minimisations  :  4232
 total energy-change (2. order) :-0.1429158E-01  (-0.3389328E-01)
 number of electron     152.9999987 magnetization       0.3925626
 augmentation part        4.9732043 magnetization       0.2044190

 Broyden mixing:
  rms(total) = 0.13775E+00    rms(broyden)= 0.13774E+00
  rms(prec ) = 0.16127E+00
  weight for this iteration     100.00

 eigenvalues of (default mixing * dielectric matrix)
  average eigenvalue GAMMA=   1.2334
  2.2572  1.5973  0.8453  0.8453  0.6218

 Free energy of the ion-electron system (eV)
  ---------------------------------------------------
  alpha Z        PSCENC =       490.14769152
  Ewald energy   TEWEN  =     -5551.44447565
  -Hartree energ DENC   =     -5153.19338295
  -exchange      EXHF   =         0.00000000
  -V(xc)+E(xc)   XCENC  =       294.54198958
  PAW double counting   =     14914.43960797   -14639.74342387
  entropy T*S    EENTRO =        -0.07575618
  eigenvalues    EBANDS =     -1646.49954103
  atomic energy  EATOM  =     11174.96942390
  Solvation  Ediel_sol  =         0.00000000
  ---------------------------------------------------
  free energy    TOTEN  =      -116.85786670 eV

  energy without entropy =     -116.78211052  energy(sigma->0) =     -116.81998861


--------------------------------------------------------------------------------------------------------




--------------------------------------- Iteration      1(  11)  ---------------------------------------


    POTLOK:  cpu time    0.2843: real time    0.2859
    SETDIJ:  cpu time    0.0285: real time    0.0287
     EDDAV:  cpu time   12.9807: real time   13.0559
       DOS:  cpu time    0.0028: real time    0.0028
    CHARGE:  cpu time    0.4312: real time    0.4323
    MIXING:  cpu time    0.0096: real time    0.0096
    --------------------------------------------
      LOOP:  cpu time   13.7371: real time   13.8151

 eigenvalue-minimisations  :  4072
 total energy-change (2. order) :-0.3941243E-02  (-0.9590793E-02)
 number of electron     152.9999987 magnetization       0.2364188
 augmentation part        4.9798954 magnetization       0.1252384

 Broyden mixing:
  rms(total) = 0.57228E-01    rms(broyden)= 0.57227E-01
  rms(prec ) = 0.71709E-01
  weight for this iteration     100.00

 eigenvalues of (default mixing * dielectric matrix)
  average eigenvalue GAMMA=   1.2661
  2.2418  2.2418  0.8906  0.8906  0.6061  0.7258

 Free energy of the ion-electron system (eV)
  ---------------------------------------------------
  alpha Z        PSCENC =       490.14769152
  Ewald energy   TEWEN  =     -5551.44447565
  -Hartree energ DENC   =     -5162.07074479
  -exchange      EXHF   =         0.00000000
  -V(xc)+E(xc)   XCENC  =       294.87467969
  PAW double counting   =     14872.60480035   -14593.07277924
  entropy T*S    EENTRO =        -0.07757773
  eigenvalues    EBANDS =     -1642.79282599
  atomic energy  EATOM  =     11174.96942390
  Solvation  Ediel_sol  =         0.00000000
  ---------------------------------------------------
  free energy    TOTEN  =      -116.86180794 eV

  energy without entropy =     -116.78423021  energy(sigma->0) =     -116.82301908


--------------------------------------------------------------------------------------------------------




--------------------------------------- Iteration      1(  12)  ---------------------------------------


    POTLOK:  cpu time    0.2830: real time    0.2842
    SETDIJ:  cpu time    0.0288: real time    0.0289
     EDDAV:  cpu time   13.6042: real time   13.6845
       DOS:  cpu time    0.0028: real time    0.0028
    CHARGE:  cpu time    0.4299: real time    0.4309
    MIXING:  cpu time    0.0098: real time    0.0098
    --------------------------------------------
      LOOP:  cpu time   14.3586: real time   14.4412

 eigenvalue-minimisations  :  4288
 total energy-change (2. order) :-0.2532031E-02  (-0.1186038E-02)
 number of electron     152.9999987 magnetization       0.1550925
 augmentation part        4.9997062 magnetization       0.0907119

 Broyden mixing:
  rms(total) = 0.34379E-01    rms(broyden)= 0.34379E-01
  rms(prec ) = 0.41566E-01
  weight for this iteration     100.00

 eigenvalues of (default mixing * dielectric matrix)
  average eigenvalue GAMMA=   1.2502
  2.3079  2.3079  1.2267  0.8351  0.8351  0.6194  0.6194

 Free energy of the ion-electron system (eV)
  ---------------------------------------------------
  alpha Z        PSCENC =       490.14769152
  Ewald energy   TEWEN  =     -5551.44447565
  -Hartree energ DENC   =     -5165.80353027
  -exchange      EXHF   =         0.00000000
  -V(xc)+E(xc)   XCENC  =       295.00977004
  PAW double counting   =     14899.50503271   -14618.43687134
  entropy T*S    EENTRO =        -0.07838284
  eigenvalues    EBANDS =     -1640.73299805
  atomic energy  EATOM  =     11174.96942390
  Solvation  Ediel_sol  =         0.00000000
  ---------------------------------------------------
  free energy    TOTEN  =      -116.86433997 eV

  energy without entropy =     -116.78595713  energy(sigma->0) =     -116.82514855


--------------------------------------------------------------------------------------------------------




--------------------------------------- Iteration      1(  13)  ---------------------------------------


    POTLOK:  cpu time    0.2810: real time    0.2822
    SETDIJ:  cpu time    0.0282: real time    0.0283
     EDDAV:  cpu time   13.5627: real time   13.6418
       DOS:  cpu time    0.0028: real time    0.0028
    CHARGE:  cpu time    0.4307: real time    0.4318
    MIXING:  cpu time    0.0093: real time    0.0093
    --------------------------------------------
      LOOP:  cpu time   14.3146: real time   14.3963

 eigenvalue-minimisations  :  4272
 total energy-change (2. order) :-0.1708421E-02  (-0.5428018E-03)
 number of electron     152.9999987 magnetization       0.0927569
 augmentation part        5.0085059 magnetization       0.0446013

 Broyden mixing:
  rms(total) = 0.17841E-01    rms(broyden)= 0.17841E-01
  rms(prec ) = 0.22831E-01
  weight for this iteration     100.00

 eigenvalues of (default mixing * dielectric matrix)
  average eigenvalue GAMMA=   1.2703
  2.4000  2.4000  1.2287  1.2287  0.8370  0.8370  0.6238  0.6075

 Free energy of the ion-electron system (eV)
  ---------------------------------------------------
  alpha Z        PSCENC =       490.14769152
  Ewald energy   TEWEN  =     -5551.44447565
  -Hartree energ DENC   =     -5166.88583172
  -exchange      EXHF   =         0.00000000
  -V(xc)+E(xc)   XCENC  =       295.04366775
  PAW double counting   =     14914.18103124   -14632.98040701
  entropy T*S    EENTRO =        -0.07860551
  eigenvalues    EBANDS =     -1639.81854292
  atomic energy  EATOM  =     11174.96942390
  Solvation  Ediel_sol  =         0.00000000
  ---------------------------------------------------
  free energy    TOTEN  =      -116.86604839 eV

  energy without entropy =     -116.78744288  energy(sigma->0) =     -116.82674564


--------------------------------------------------------------------------------------------------------




--------------------------------------- Iteration      1(  14)  ---------------------------------------


    POTLOK:  cpu time    0.2808: real time    0.2821
    SETDIJ:  cpu time    0.0290: real time    0.0292
     EDDAV:  cpu time   12.0411: real time   12.1111
       DOS:  cpu time    0.0028: real time    0.0028
    CHARGE:  cpu time    0.4310: real time    0.4321
    MIXING:  cpu time    0.0098: real time    0.0099
    --------------------------------------------
      LOOP:  cpu time   12.7946: real time   12.8671

 eigenvalue-minimisations  :  3680
 total energy-change (2. order) :-0.1642857E-02  (-0.2248502E-03)
 number of electron     152.9999987 magnetization       0.0282838
 augmentation part        5.0127051 magnetization      -0.0009040

 Broyden mixing:
  rms(total) = 0.87955E-02    rms(broyden)= 0.87953E-02
  rms(prec ) = 0.13321E-01
  weight for this iteration     100.00

 eigenvalues of (default mixing * dielectric matrix)
  average eigenvalue GAMMA=   1.3439
  2.5848  2.5848  1.9366  1.2953  0.8425  0.8425  0.7703  0.6190  0.6190

 Free energy of the ion-electron system (eV)
  ---------------------------------------------------
  alpha Z        PSCENC =       490.14769152
  Ewald energy   TEWEN  =     -5551.44447565
  -Hartree energ DENC   =     -5167.76892549
  -exchange      EXHF   =         0.00000000
  -V(xc)+E(xc)   XCENC  =       295.06978328
  PAW double counting   =     14912.30688710   -14631.03273709
  entropy T*S    EENTRO =        -0.07865166
  eigenvalues    EBANDS =     -1639.03668717
  atomic energy  EATOM  =     11174.96942390
  Solvation  Ediel_sol  =         0.00000000
  ---------------------------------------------------
  free energy    TOTEN  =      -116.86769125 eV

  energy without entropy =     -116.78903959  energy(sigma->0) =     -116.82836542


--------------------------------------------------------------------------------------------------------




--------------------------------------- Iteration      1(  15)  ---------------------------------------


    POTLOK:  cpu time    0.2776: real time    0.2789
    SETDIJ:  cpu time    0.0291: real time    0.0292
     EDDAV:  cpu time   11.9224: real time   11.9980
       DOS:  cpu time    0.0028: real time    0.0028
    CHARGE:  cpu time    0.4309: real time    0.4319
    MIXING:  cpu time    0.0094: real time    0.0095
    --------------------------------------------
      LOOP:  cpu time   12.6722: real time   12.7503

 eigenvalue-minimisations  :  3632
 total energy-change (2. order) :-0.8121084E-03  (-0.1075443E-03)
 number of electron     152.9999987 magnetization       0.0039435
 augmentation part        5.0162772 magnetization      -0.0063312

 Broyden mixing:
  rms(total) = 0.40874E-02    rms(broyden)= 0.40873E-02
  rms(prec ) = 0.60658E-02
  weight for this iteration     100.00

 eigenvalues of (default mixing * dielectric matrix)
  average eigenvalue GAMMA=   1.3649
  3.0757  2.3081  2.3081  1.3952  0.9691  0.8041  0.8041  0.7300  0.6145  0.6397

 Free energy of the ion-electron system (eV)
  ---------------------------------------------------
  alpha Z        PSCENC =       490.14769152
  Ewald energy   TEWEN  =     -5551.44447565
  -Hartree energ DENC   =     -5168.48031802
  -exchange      EXHF   =         0.00000000
  -V(xc)+E(xc)   XCENC  =       295.09045971
  PAW double counting   =     14918.68866426   -14637.49006488
  entropy T*S    EENTRO =        -0.07872467
  eigenvalues    EBANDS =     -1638.27115953
  atomic energy  EATOM  =     11174.96942390
  Solvation  Ediel_sol  =         0.00000000
  ---------------------------------------------------
  free energy    TOTEN  =      -116.86850336 eV

  energy without entropy =     -116.78977868  energy(sigma->0) =     -116.82914102


--------------------------------------------------------------------------------------------------------




--------------------------------------- Iteration      1(  16)  ---------------------------------------


    POTLOK:  cpu time    0.2742: real time    0.2761
    SETDIJ:  cpu time    0.0289: real time    0.0290
     EDDAV:  cpu time   12.2266: real time   12.2973
       DOS:  cpu time    0.0027: real time    0.0027
    CHARGE:  cpu time    0.4323: real time    0.4334
    MIXING:  cpu time    0.0110: real time    0.0111
    --------------------------------------------
      LOOP:  cpu time   12.9758: real time   13.0495

 eigenvalue-minimisations  :  3784
 total energy-change (2. order) :-0.1590570E-03  (-0.4070809E-04)
 number of electron     152.9999987 magnetization      -0.0001762
 augmentation part        5.0183720 magnetization      -0.0026867

 Broyden mixing:
  rms(total) = 0.28969E-02    rms(broyden)= 0.28967E-02
  rms(prec ) = 0.33922E-02
  weight for this iteration     100.00

 eigenvalues of (default mixing * dielectric matrix)
  average eigenvalue GAMMA=   1.3139
  3.2779  2.3104  2.3104  1.4899  0.9961  0.8049  0.8049  0.6649  0.6649  0.5966
  0.5323

 Free energy of the ion-electron system (eV)
  ---------------------------------------------------
  alpha Z        PSCENC =       490.14769152
  Ewald energy   TEWEN  =     -5551.44447565
  -Hartree energ DENC   =     -5168.77436158
  -exchange      EXHF   =         0.00000000
  -V(xc)+E(xc)   XCENC  =       295.09967666
  PAW double counting   =     14919.51828779   -14638.37302170
  entropy T*S    EENTRO =        -0.07873701
  eigenvalues    EBANDS =     -1637.93314635
  atomic energy  EATOM  =     11174.96942390
  Solvation  Ediel_sol  =         0.00000000
  ---------------------------------------------------
  free energy    TOTEN  =      -116.86866241 eV

  energy without entropy =     -116.78992540  energy(sigma->0) =     -116.82929391


--------------------------------------------------------------------------------------------------------




--------------------------------------- Iteration      1(  17)  ---------------------------------------


    POTLOK:  cpu time    0.2731: real time    0.2744
    SETDIJ:  cpu time    0.0290: real time    0.0291
     EDDAV:  cpu time   10.7437: real time   10.8058
       DOS:  cpu time    0.0028: real time    0.0028
    CHARGE:  cpu time    0.4315: real time    0.4326
    MIXING:  cpu time    0.0114: real time    0.0115
    --------------------------------------------
      LOOP:  cpu time   11.4915: real time   11.5561

 eigenvalue-minimisations  :  3176
 total energy-change (2. order) :-0.2499013E-04  (-0.3967312E-05)
 number of electron     152.9999987 magnetization      -0.0015244
 augmentation part        5.0184722 magnetization      -0.0017712

 Broyden mixing:
  rms(total) = 0.16559E-02    rms(broyden)= 0.16559E-02
  rms(prec ) = 0.19310E-02
  weight for this iteration     100.00

 eigenvalues of (default mixing * dielectric matrix)
  average eigenvalue GAMMA=   1.3528
  3.5426  2.3985  2.3985  1.7443  1.0958  0.8026  0.8026  0.7927  0.7215  0.7215
  0.6064  0.6064

 Free energy of the ion-electron system (eV)
  ---------------------------------------------------
  alpha Z        PSCENC =       490.14769152
  Ewald energy   TEWEN  =     -5551.44447565
  -Hartree energ DENC   =     -5168.76573657
  -exchange      EXHF   =         0.00000000
  -V(xc)+E(xc)   XCENC  =       295.09890718
  PAW double counting   =     14917.63164968   -14636.56476899
  entropy T*S    EENTRO =        -0.07873264
  eigenvalues    EBANDS =     -1637.86264584
  atomic energy  EATOM  =     11174.96942390
  Solvation  Ediel_sol  =         0.00000000
  ---------------------------------------------------
  free energy    TOTEN  =      -116.86868740 eV

  energy without entropy =     -116.78995477  energy(sigma->0) =     -116.82932109


--------------------------------------------------------------------------------------------------------




--------------------------------------- Iteration      1(  18)  ---------------------------------------


    POTLOK:  cpu time    0.2704: real time    0.2717
    SETDIJ:  cpu time    0.0295: real time    0.0296
     EDDAV:  cpu time    9.1119: real time    9.1646
       DOS:  cpu time    0.0028: real time    0.0028
    --------------------------------------------
      LOOP:  cpu time    9.4146: real time    9.4687

 eigenvalue-minimisations  :  2528
 total energy-change (2. order) :-0.4487752E-05  (-0.7259860E-06)
 number of electron     152.9999987 magnetization      -0.0015244
 augmentation part        5.0184722 magnetization      -0.0017712

 Free energy of the ion-electron system (eV)
  ---------------------------------------------------
  alpha Z        PSCENC =       490.14769152
  Ewald energy   TEWEN  =     -5551.44447565
  -Hartree energ DENC   =     -5168.74515123
  -exchange      EXHF   =         0.00000000
  -V(xc)+E(xc)   XCENC  =       295.09752662
  PAW double counting   =     14916.05806621   -14635.04358317
  entropy T*S    EENTRO =        -0.07873303
  eigenvalues    EBANDS =     -1637.82945708
  atomic energy  EATOM  =     11174.96942390
  Solvation  Ediel_sol  =         0.00000000
  ---------------------------------------------------
  free energy    TOTEN  =      -116.86869189 eV

  energy without entropy =     -116.78995886  energy(sigma->0) =     -116.82932538


--------------------------------------------------------------------------------------------------------




 average (electrostatic) potential at core
  the test charge radii are     1.2780  0.6991  1.1875
  (the norm of the test charge is              1.0000)
       1 -36.7837       2 -36.8035       3 -36.8247       4 -36.8247       5 -37.1412
       6 -37.1412       7 -36.8842       8 -37.1080       9 -50.0088      10 -49.9590
      11 -49.9521      12 -49.9521      13 -92.5843      14 -92.5843      15 -92.5944
      16 -92.5945      17 -93.0995      18 -93.0335      19 -93.0335



 E-fermi :   3.5590     XC(G=0):  -8.6151     alpha+bet : -9.1734


 spin component 1

 k-point     1 :       0.0000    0.0000    0.0000
  band No.  band energies     occupation 
      1     -39.0365      1.00000
      2     -39.0261      1.00000
      3     -38.9966      1.00000
      4     -38.7811      1.00000
      5     -38.7165      1.00000
      6     -38.7096      1.00000
      7     -38.6916      1.00000
      8     -38.6719      1.00000
      9     -19.2191      1.00000
     10     -19.1636      1.00000
     11     -19.1562      1.00000
     12     -19.1470      1.00000
     13     -19.1172      1.00000
     14     -19.0536      1.00000
     15     -19.0377      1.00000
     16     -18.9808      1.00000
     17     -18.9589      1.00000
     18     -18.9577      1.00000
     19     -18.8291      1.00000
     20     -18.7997      1.00000
     21     -18.7786      1.00000
     22     -18.7481      1.00000
     23     -18.7467      1.00000
     24     -18.7015      1.00000
     25     -18.6923      1.00000
     26     -18.6841      1.00000
     27     -18.6823      1.00000
     28     -18.6754      1.00000
     29     -18.6417      1.00000
     30     -18.6414      1.00000
     31     -18.6026      1.00000
     32     -18.5982      1.00000
     33     -10.0851      1.00000
     34      -9.7858      1.00000
     35      -9.5871      1.00000
     36      -9.5496      1.00000
     37      -9.1317      1.00000
     38      -9.1250      1.00000
     39      -9.1228      1.00000
     40      -5.3182      1.00000
     41      -4.8485      1.00000
     42      -4.8152      1.00000
     43      -4.8118      1.00000
     44      -1.2311      1.00000
     45      -1.1016      1.00000
     46      -1.0429      1.00000
     47      -0.6879      1.00000
     48      -0.6261      1.00000
     49      -0.6071      1.00000
     50      -0.4720      1.00000
     51      -0.2153      1.00000
     52      -0.1076      1.00000
     53      -0.0706      1.00000
     54       0.1074      1.00000
     55       0.2749      1.00000
     56       0.3432      1.00000
     57       0.3585      1.00000
     58       0.4893      1.00000
     59       0.5053      1.00000
     60       1.0201      1.00000
     61       1.2721      1.00000
     62       1.3730      1.00000
     63       1.4094      1.00000
     64       1.5989      1.00000
     65       1.6600      1.00000
     66       1.8777      1.00000
     67       1.8903      1.00000
     68       1.8928      1.00000
     69       2.0536      1.00000
     70       2.0688      1.00000
     71       2.3985      1.00000
     72       2.4284      1.00000
     73       2.4450      1.00000
     74       2.5492      1.00000
     75       2.7726      1.00000
     76       2.8019      1.00000
     77       3.4867      0.69541
     78       3.9083      0.00676
     79       4.8799      0.00000
     80       5.0197      0.00000
     81       5.0649      0.00000
     82       5.1823      0.00000
     83       5.2894      0.00000
     84       5.2940      0.00000
     85       5.6288      0.00000
     86       6.5348      0.00000
     87       6.5642      0.00000
     88       6.6479      0.00000
     89       6.7194      0.00000
     90       6.7925      0.00000
     91       6.8874      0.00000
     92       6.9825      0.00000
     93       7.1572      0.00000
     94       7.1903      0.00000
     95       7.2101      0.00000
     96       7.2953      0.00000
     97       7.3521      0.00000

 k-point     2 :       0.5000    0.0000    0.0000
  band No.  band energies     occupation 
      1     -39.0318      1.00000
      2     -39.0308      1.00000
      3     -38.9964      1.00000
      4     -38.7811      1.00000
      5     -38.7140      1.00000
      6     -38.7123      1.00000
      7     -38.6911      1.00000
      8     -38.6724      1.00000
      9     -19.1916      1.00000
     10     -19.1890      1.00000
     11     -19.1342      1.00000
     12     -19.1195      1.00000
     13     -19.0812      1.00000
     14     -19.0565      1.00000
     15     -19.0561      1.00000
     16     -19.0075      1.00000
     17     -18.9524      1.00000
     18     -18.9401      1.00000
     19     -18.8672      1.00000
     20     -18.8183      1.00000
     21     -18.7596      1.00000
     22     -18.7557      1.00000
     23     -18.7171      1.00000
     24     -18.7118      1.00000
     25     -18.6965      1.00000
     26     -18.6755      1.00000
     27     -18.6742      1.00000
     28     -18.6706      1.00000
     29     -18.6614      1.00000
     30     -18.6435      1.00000
     31     -18.6237      1.00000
     32     -18.6183      1.00000
     33      -9.9963      1.00000
     34      -9.7339      1.00000
     35      -9.5448      1.00000
     36      -9.5444      1.00000
     37      -9.5003      1.00000
     38      -9.0483      1.00000
     39      -9.0480      1.00000
     40      -5.1311      1.00000
     41      -5.0995      1.00000
     42      -4.7880      1.00000
     43      -4.7640      1.00000
     44      -1.0957      1.00000
     45      -0.6926      1.00000
     46      -0.6876      1.00000
     47      -0.6268      1.00000
     48      -0.3887      1.00000
     49      -0.3117      1.00000
     50      -0.2268      1.00000
     51      -0.2146      1.00000
     52      -0.1859      1.00000
     53       0.0282      1.00000
     54       0.0490      1.00000
     55       0.1148      1.00000
     56       0.1413      1.00000
     57       0.1765      1.00000
     58       0.4345      1.00000
     59       0.4389      1.00000
     60       0.7267      1.00000
     61       0.7296      1.00000
     62       1.3028      1.00000
     63       1.5425      1.00000
     64       1.6188      1.00000
     65       1.6683      1.00000
     66       1.7029      1.00000
     67       1.7683      1.00000
     68       1.9010      1.00000
     69       1.9183      1.00000
     70       1.9714      1.00000
     71       2.0531      1.00000
     72       2.1168      1.00000
     73       2.3644      1.00000
     74       2.4525      1.00000
     75       2.5094      1.00000
     76       2.5234      1.00000
     77       4.1779      0.00001
     78       4.4726      0.00000
     79       4.6482      0.00000
     80       4.8277      0.00000
     81       5.0432      0.00000
     82       5.2547      0.00000
     83       5.3640      0.00000
     84       5.7773      0.00000
     85       5.8324      0.00000
     86       6.0466      0.00000
     87       6.1658      0.00000
     88       6.3069      0.00000
     89       6.4294      0.00000
     90       6.5568      0.00000
     91       6.5888      0.00000
     92       6.7914      0.00000
     93       6.9584      0.00000
     94       7.0218      0.00000
     95       7.1866      0.00000
     96       7.4290      0.00000
     97       7.5107      0.00000

 k-point     3 :       0.0000    0.5000    0.0000
  band No.  band energies     occupation 
      1     -39.0352      1.00000
      2     -39.0261      1.00000
      3     -38.9978      1.00000
      4     -38.7811      1.00000
      5     -38.7151      1.00000
      6     -38.7096      1.00000
      7     -38.6926      1.00000
      8     -38.6724      1.00000
      9     -19.2078      1.00000
     10     -19.1807      1.00000
     11     -19.1615      1.00000
     12     -19.1347      1.00000
     13     -19.1309      1.00000
     14     -19.0568      1.00000
     15     -19.0071      1.00000
     16     -18.9756      1.00000
     17     -18.9620      1.00000
     18     -18.9485      1.00000
     19     -18.8419      1.00000
     20     -18.8097      1.00000
     21     -18.7757      1.00000
     22     -18.7739      1.00000
     23     -18.7350      1.00000
     24     -18.7026      1.00000
     25     -18.6964      1.00000
     26     -18.6814      1.00000
     27     -18.6672      1.00000
     28     -18.6507      1.00000
     29     -18.6450      1.00000
     30     -18.6316      1.00000
     31     -18.6300      1.00000
     32     -18.6084      1.00000
     33      -9.8969      1.00000
     34      -9.7906      1.00000
     35      -9.5488      1.00000
     36      -9.4821      1.00000
     37      -9.4737      1.00000
     38      -9.1295      1.00000
     39      -9.1206      1.00000
     40      -5.0749      1.00000
     41      -5.0561      1.00000
     42      -4.8347      1.00000
     43      -4.8137      1.00000
     44      -1.3772      1.00000
     45      -1.1548      1.00000
     46      -1.1203      1.00000
     47      -0.8380      1.00000
     48      -0.5753      1.00000
     49      -0.4367      1.00000
     50      -0.3243      1.00000
     51      -0.1096      1.00000
     52      -0.0875      1.00000
     53      -0.0189      1.00000
     54       0.2803      1.00000
     55       0.3297      1.00000
     56       0.3479      1.00000
     57       0.3788      1.00000
     58       0.4677      1.00000
     59       0.9810      1.00000
     60       1.3084      1.00000
     61       1.3387      1.00000
     62       1.3719      1.00000
     63       1.3891      1.00000
     64       1.4502      1.00000
     65       1.6949      1.00000
     66       1.7199      1.00000
     67       1.7301      1.00000
     68       1.9033      1.00000
     69       2.0672      1.00000
     70       2.1283      1.00000
     71       2.4261      1.00000
     72       2.4268      1.00000
     73       2.4687      1.00000
     74       2.5313      1.00000
     75       2.5599      1.00000
     76       2.5816      1.00000
     77       3.4717      0.73156
     78       3.5055      0.64729
     79       4.1437      0.00002
     80       4.1823      0.00001
     81       4.2656      0.00000
     82       5.7881      0.00000
     83       5.9876      0.00000
     84       6.0493      0.00000
     85       6.1622      0.00000
     86       6.4212      0.00000
     87       6.6150      0.00000
     88       6.6889      0.00000
     89       6.7298      0.00000
     90       6.8697      0.00000
     91       6.9601      0.00000
     92       6.9606      0.00000
     93       7.1014      0.00000
     94       7.1390      0.00000
     95       7.2100      0.00000
     96       7.3512      0.00000
     97       7.3721      0.00000

 k-point     4 :       0.5000    0.5000    0.0000
  band No.  band energies     occupation 
      1     -39.0306      1.00000
      2     -39.0306      1.00000
      3     -38.9976      1.00000
      4     -38.7812      1.00000
      5     -38.7133      1.00000
      6     -38.7115      1.00000
      7     -38.6919      1.00000
      8     -38.6731      1.00000
      9     -19.1896      1.00000
     10     -19.1740      1.00000
     11     -19.1494      1.00000
     12     -19.1036      1.00000
     13     -19.0982      1.00000
     14     -19.0594      1.00000
     15     -19.0513      1.00000
     16     -18.9775      1.00000
     17     -18.9603      1.00000
     18     -18.9580      1.00000
     19     -18.8530      1.00000
     20     -18.8374      1.00000
     21     -18.7537      1.00000
     22     -18.7472      1.00000
     23     -18.7441      1.00000
     24     -18.7265      1.00000
     25     -18.6888      1.00000
     26     -18.6792      1.00000
     27     -18.6637      1.00000
     28     -18.6502      1.00000
     29     -18.6499      1.00000
     30     -18.6399      1.00000
     31     -18.6371      1.00000
     32     -18.6308      1.00000
     33      -9.7878      1.00000
     34      -9.7320      1.00000
     35      -9.7267      1.00000
     36      -9.3133      1.00000
     37      -9.3124      1.00000
     38      -9.3048      1.00000
     39      -9.3038      1.00000
     40      -4.9778      1.00000
     41      -4.9378      1.00000
     42      -4.9343      1.00000
     43      -4.9276      1.00000
     44      -0.9442      1.00000
     45      -0.6930      1.00000
     46      -0.4405      1.00000
     47      -0.4160      1.00000
     48      -0.4115      1.00000
     49      -0.2758      1.00000
     50      -0.2634      1.00000
     51      -0.2595      1.00000
     52      -0.2496      1.00000
     53      -0.0613      1.00000
     54      -0.0291      1.00000
     55       0.0196      1.00000
     56       0.1558      1.00000
     57       0.1610      1.00000
     58       0.1742      1.00000
     59       0.8537      1.00000
     60       0.8754      1.00000
     61       1.2599      1.00000
     62       1.2721      1.00000
     63       1.2747      1.00000
     64       1.2764      1.00000
     65       1.4678      1.00000
     66       1.7548      1.00000
[...]
 -0.000  -0.000   0.000  -0.000  -1.332  -0.000   0.000   1.339   3.120   0.000   0.000  -1.657  -0.000  -1.738  -0.000  -0.000
 -0.001  -0.003   1.914  -0.065  -0.000  -1.945   0.067   0.000   0.000   4.413  -0.001  -0.000  -1.620  -0.000  -2.494   0.001
  0.004  -0.018   0.005  -0.532  -0.000  -0.005   0.529   0.000   0.000  -0.001   2.330   0.000   0.003  -0.000   0.001  -1.257
  0.000   0.000  -0.000   0.000   2.059   0.000  -0.000  -2.093  -1.657  -0.000   0.000   4.524   0.000   0.981   0.000  -0.000
  0.001   0.012  -1.255   0.042   0.000   1.259  -0.044  -0.000  -0.000  -1.620   0.003   0.000   3.161   0.000   0.959   0.000
  0.000   0.000  -0.000   0.000   0.700   0.000  -0.000  -0.709  -1.738  -0.000  -0.000   0.981   0.000   0.978   0.000   0.000
  0.001   0.002  -0.935   0.035   0.000   0.968  -0.036  -0.000  -0.000  -2.494   0.001   0.000   0.959   0.000   1.422  -0.000
 -0.002   0.005  -0.001   0.373   0.000   0.002  -0.363  -0.000  -0.000   0.001  -1.257  -0.000   0.000   0.000  -0.000   0.684
 -0.000  -0.000   0.000  -0.000  -1.014  -0.000   0.000   1.048   0.979   0.000  -0.000  -2.551  -0.000  -0.584  -0.000   0.000
 -0.001  -0.006   0.660  -0.024  -0.000  -0.667   0.025   0.000   0.000   0.961   0.000  -0.000  -1.758  -0.000  -0.572  -0.001
 -0.006   0.026  -0.002   0.219   0.000   0.001  -0.218  -0.000  -0.000  -0.000  -0.052   0.000   0.001   0.000   0.000   0.028
 -0.000   0.000  -0.000   0.000   0.270   0.000  -0.000  -0.268  -0.056  -0.000   0.000   0.019   0.000   0.030   0.000  -0.000
 -0.000   0.000  -0.099   0.005   0.000   0.102  -0.004  -0.000  -0.000   0.036   0.003   0.000  -0.029   0.000  -0.021  -0.002
 -0.004   0.032  -0.000   0.186   0.000  -0.000  -0.183  -0.000  -0.000   0.001  -0.038   0.000   0.002   0.000  -0.000   0.019
  0.000  -0.000   0.000  -0.000  -0.105  -0.000   0.000   0.108  -0.028   0.000  -0.000   0.030   0.000   0.015  -0.000   0.000
  0.000  -0.001   0.262  -0.005  -0.000  -0.261   0.005   0.000  -0.000   0.014  -0.001  -0.000  -0.060   0.000  -0.008   0.001
  0.000  -0.000  -0.000  -0.000  -0.002   0.000   0.000   0.002  -0.002  -0.000   0.000  -0.002  -0.000   0.001   0.000  -0.000
 total augmentation occupancy for first ion, spin component:           2
 -0.000  -0.000  -0.000  -0.000   0.000   0.000   0.000  -0.000  -0.000   0.000  -0.000  -0.000   0.000   0.000  -0.000   0.000
 -0.000  -0.000  -0.000  -0.000   0.000   0.000   0.000  -0.000  -0.000  -0.000  -0.000   0.000   0.000   0.000   0.000   0.000
 -0.000  -0.000   0.000  -0.000  -0.000  -0.000   0.000   0.000  -0.000  -0.000   0.000   0.000   0.000   0.000   0.000  -0.000
 -0.000  -0.000  -0.000   0.000   0.000   0.000  -0.000  -0.000   0.000  -0.000  -0.000   0.000   0.000  -0.000   0.000   0.000
  0.000   0.000  -0.000   0.000  -0.000   0.000  -0.000   0.000  -0.000   0.000   0.000   0.000   0.000   0.000  -0.000  -0.000
  0.000   0.000  -0.000   0.000   0.000   0.000  -0.000   0.000   0.000   0.000  -0.000   0.000  -0.000  -0.000  -0.000   0.000
  0.000   0.000   0.000  -0.000  -0.000  -0.000   0.000   0.000  -0.000   0.000   0.000  -0.000  -0.000   0.000  -0.000  -0.000
 -0.000  -0.000   0.000  -0.000   0.000   0.000   0.000  -0.000   0.000  -0.000  -0.000  -0.000  -0.000  -0.000   0.000  -0.000
 -0.000  -0.000  -0.000   0.000  -0.000   0.000  -0.000   0.000  -0.000  -0.000   0.000  -0.000   0.000   0.000   0.000  -0.000
  0.000  -0.000  -0.000  -0.000   0.000   0.000   0.000  -0.000  -0.000  -0.000   0.000   0.000   0.000   0.000   0.000  -0.000
 -0.000  -0.000   0.000  -0.000   0.000  -0.000   0.000  -0.000   0.000   0.000  -0.000   0.000  -0.000  -0.000  -0.000   0.000
 -0.000   0.000   0.000   0.000   0.000   0.000  -0.000  -0.000  -0.000   0.000   0.000  -0.000   0.000  -0.000  -0.000   0.000
  0.000   0.000   0.000   0.000   0.000  -0.000  -0.000  -0.000   0.000   0.000  -0.000   0.000  -0.000  -0.000  -0.000   0.000
  0.000   0.000   0.000  -0.000   0.000  -0.000   0.000  -0.000   0.000   0.000  -0.000  -0.000  -0.000  -0.000  -0.000   0.000
 -0.000   0.000   0.000   0.000  -0.000  -0.000  -0.000   0.000   0.000   0.000  -0.000  -0.000  -0.000  -0.000  -0.000   0.000
  0.000   0.000  -0.000   0.000  -0.000   0.000  -0.000  -0.000  -0.000  -0.000   0.000   0.000   0.000   0.000   0.000  -0.000
  0.000   0.000  -0.000  -0.000  -0.000   0.000   0.000   0.000   0.000  -0.000  -0.000   0.000  -0.000   0.000   0.000   0.000
 -0.000  -0.000  -0.000   0.000  -0.000   0.000  -0.000   0.000  -0.000  -0.000   0.000  -0.000   0.000   0.000   0.000  -0.000
  0.000  -0.000  -0.000   0.000  -0.000   0.000  -0.000   0.000   0.000  -0.000  -0.000  -0.000  -0.000  -0.000   0.000  -0.000
 -0.000   0.000   0.000  -0.000  -0.000  -0.000   0.000   0.000  -0.000   0.000  -0.000   0.000  -0.000   0.000  -0.000   0.000
 -0.000   0.000  -0.000   0.000  -0.000   0.000  -0.000   0.000  -0.000   0.000   0.000  -0.000  -0.000  -0.000  -0.000   0.000
 -0.000   0.000  -0.000   0.000  -0.000   0.000  -0.000   0.000   0.000  -0.000   0.000  -0.000  -0.000  -0.000   0.000  -0.000
 -0.000  -0.000  -0.000  -0.000   0.000   0.000   0.000  -0.000   0.000   0.000  -0.000  -0.000  -0.000  -0.000  -0.000   0.000
  0.000  -0.000   0.000   0.000  -0.000  -0.000  -0.000   0.000  -0.000  -0.000   0.000  -0.000   0.000   0.000   0.000  -0.000
 -0.000  -0.000  -0.000  -0.000  -0.000  -0.000   0.000   0.000  -0.000   0.000   0.000  -0.000   0.000   0.000  -0.000  -0.000


------------------------ aborting loop because EDIFF is reached ----------------------------------------





 total charge     

# of ion       s       p       d       f       tot
--------------------------------------------------
    1        2.183   6.370   0.944   0.043   9.540
    2        2.183   6.374   0.942   0.044   9.543
    3        2.183   6.370   0.935   0.043   9.530
    4        2.183   6.370   0.935   0.043   9.530
    5        2.196   6.347   0.982   0.040   9.566
    6        2.196   6.347   0.982   0.040   9.566
    7        2.183   6.360   0.947   0.042   9.532
    8        2.198   6.354   0.989   0.042   9.583
    9        0.864   1.377   0.000   0.000   2.241
   10        0.865   1.386   0.000   0.000   2.250
   11        0.864   1.369   0.000   0.000   2.233
   12        0.864   1.369   0.000   0.000   2.233
   13        1.507   2.834   0.019   0.000   4.359
   14        1.507   2.834   0.019   0.000   4.359
   15        1.508   2.833   0.019   0.000   4.360
   16        1.507   2.833   0.019   0.000   4.359
   17        1.506   2.825   0.015   0.000   4.347
   18        1.506   2.827   0.016   0.000   4.349
   19        1.506   2.827   0.016   0.000   4.349
--------------------------------------------------
tot         31.510  76.208   7.777   0.337 115.831




 magnetization (x)

# of ion       s       p       d       f       tot
--------------------------------------------------
    1       -0.000  -0.000  -0.000   0.000  -0.000
    2        0.000   0.000   0.000  -0.000   0.000
    3        0.000   0.000   0.000   0.000   0.000
    4       -0.000   0.000   0.000   0.000   0.000
    5       -0.000  -0.000  -0.000   0.000  -0.000
    6       -0.000  -0.000  -0.000   0.000  -0.000
    7       -0.000   0.000  -0.000   0.000  -0.000
    8       -0.000  -0.000  -0.000   0.000  -0.000
    9       -0.000   0.000   0.000   0.000   0.000
   10       -0.000   0.000   0.000   0.000   0.000
   11       -0.000   0.000   0.000   0.000   0.000
   12       -0.000   0.000   0.000   0.000   0.000
   13        0.000  -0.000   0.000   0.000  -0.000
   14        0.000  -0.000   0.000   0.000  -0.000
   15        0.000   0.000  -0.000   0.000   0.000
   16        0.000  -0.000  -0.000   0.000  -0.000
   17        0.000   0.000  -0.000   0.000   0.000
   18       -0.000   0.000  -0.000   0.000  -0.000
   19       -0.000  -0.000  -0.000   0.000  -0.000
--------------------------------------------------
tot         -0.000   0.000  -0.000   0.000  -0.000


    CHARGE:  cpu time    0.4248: real time    0.4258
    FORLOC:  cpu time    0.0150: real time    0.0151
    FORNL :  cpu time    2.4619: real time    2.4747
    STRESS:  cpu time    7.3688: real time    7.4072
    FORCOR:  cpu time    0.2740: real time    0.2752
    FORHAR:  cpu time    0.0447: real time    0.0449
    MIXING:  cpu time    0.0086: real time    0.0087
    OFIELD:  cpu time    0.0000: real time    0.0000

  FORCE on cell =-STRESS in cart. coord.  units (eV):
  Direction    XX          YY          ZZ          XY          YZ          ZX
  --------------------------------------------------------------------------------------
  Alpha Z   490.14769   490.14769   490.14769
  Ewald     609.18035   612.84330 -6704.01939    -0.00065     1.68223     0.00121
  Hartree  3998.45822  4005.36045 -2766.13642    -0.00031     1.60184     0.00060
  E(xc)    -597.55927  -597.52720  -598.07355    -0.00000     0.01213     0.00000
  Local   -6746.75660 -6755.65397  7352.36180     0.00099    -3.63708    -0.00187
  n-local   537.74609   537.13009   541.08863     0.00006    -0.31849    -0.00006
  augment  -143.40638  -143.04333  -142.12295    -0.00000     0.06091     0.00001
  Kinetic  1847.59632  1844.32352  1827.20606    -0.00017     0.55395     0.00012
  Fock        0.00000     0.00000     0.00000     0.00000     0.00000     0.00000
  -------------------------------------------------------------------------------------
  Total      -4.59358    -6.41945     0.45186    -0.00009    -0.04450     0.00000
  in kB     -12.67976   -17.71973     1.24729    -0.00025    -0.12283     0.00001
  external pressure =       -9.72 kB  Pullay stress =        0.00 kB


 VOLUME and BASIS-vectors are now :
 -----------------------------------------------------------------------------
  energy-cutoff  :      520.00
  volume of cell :      580.43
      direct lattice vectors                 reciprocal lattice vectors
     7.770644000  0.000004000  0.000000000     0.128689463 -0.000000038  0.000000012
     0.000002000  6.729576000  0.000000000    -0.000000076  0.148597772  0.000000013
    -0.000001000 -0.000001000 11.099577000     0.000000000  0.000000000  0.090093523

  length of vectors
     7.770644000  6.729576000 11.099577000     0.128689463  0.148597772  0.090093523


 FORCES acting on ions
    electron-ion (+dipol)            ewald-force                    non-local-force                 convergence-correction
 -----------------------------------------------------------------------------------------------
   -.747E-04 0.131E+01 -.337E+03   0.620E-04 -.124E+01 0.332E+03   0.150E-04 -.726E-01 0.471E+01   -.161E-05 -.732E-03 0.119E-02
   -.670E-04 -.470E+01 -.371E+03   0.543E-04 0.470E+01 0.367E+03   0.141E-04 0.683E-02 0.454E+01   -.217E-05 0.247E-03 0.104E-02
   0.371E+01 0.167E+01 -.366E+03   -.382E+01 -.170E+01 0.361E+03   0.106E+00 0.359E-01 0.435E+01   0.978E-04 0.108E-03 0.113E-02
   -.372E+01 0.167E+01 -.366E+03   0.382E+01 -.170E+01 0.361E+03   -.106E+00 0.358E-01 0.435E+01   -.983E-04 0.106E-03 0.113E-02
   0.751E+02 -.385E+02 0.467E+03   -.734E+02 0.378E+02 -.460E+03   -.172E+01 0.747E+00 -.686E+01   0.751E-05 -.321E-03 -.349E-03
   -.751E+02 -.385E+02 0.467E+03   0.734E+02 0.378E+02 -.460E+03   0.172E+01 0.747E+00 -.686E+01   -.700E-05 -.325E-03 -.347E-03
   -.372E-04 0.756E+01 0.430E+03   0.534E-04 -.813E+01 -.425E+03   -.140E-04 0.575E+00 -.535E+01   -.411E-07 0.240E-03 -.122E-02
   0.186E-03 0.691E+02 0.468E+03   -.176E-03 -.671E+02 -.462E+03   -.141E-04 -.200E+01 -.649E+01   -.184E-06 0.845E-03 0.983E-03
   0.428E-04 -.167E+02 0.234E+02   -.386E-04 0.166E+02 -.235E+02   -.815E-06 0.782E-01 0.901E-01   -.889E-06 0.216E-03 -.235E-04
   0.135E-03 0.991E+01 0.708E+01   -.131E-03 -.980E+01 -.745E+01   -.526E-05 -.110E+00 0.364E+00   0.113E-05 -.366E-03 0.222E-03
   0.110E+02 0.345E+01 0.281E+02   -.110E+02 -.344E+01 -.282E+02   -.699E-01 -.774E-02 0.537E-01   -.829E-04 -.162E-04 0.300E-03
   -.110E+02 0.345E+01 0.281E+02   0.110E+02 -.344E+01 -.282E+02   0.699E-01 -.775E-02 0.537E-01   0.833E-04 -.160E-04 0.300E-03
   0.898E+01 -.411E+01 -.385E+03   -.901E+01 0.412E+01 0.387E+03   0.335E-01 -.977E-02 -.235E+01   -.237E-03 0.858E-04 0.142E-03
   -.898E+01 -.411E+01 -.385E+03   0.901E+01 0.412E+01 0.387E+03   -.335E-01 -.978E-02 -.235E+01   0.237E-03 0.857E-04 0.143E-03
   -.646E-04 0.166E+01 -.379E+03   0.650E-04 -.165E+01 0.381E+03   -.906E-06 -.381E-02 -.236E+01   0.143E-06 0.124E-03 0.811E-03
   -.220E-04 0.663E+01 -.386E+03   0.219E-04 -.666E+01 0.389E+03   -.474E-06 0.322E-01 -.234E+01   -.150E-06 -.263E-03 0.224E-03
   -.745E-06 -.239E+01 0.356E+03   -.540E-06 0.234E+01 -.358E+03   0.247E-05 0.521E-01 0.244E+01   0.378E-06 -.916E-04 -.831E-03
   0.243E+02 0.130E+01 0.355E+03   -.242E+02 -.128E+01 -.357E+03   -.211E-01 -.167E-01 0.243E+01   0.281E-03 0.162E-03 -.490E-03
   -.243E+02 0.130E+01 0.355E+03   0.242E+02 -.128E+01 -.357E+03   0.211E-01 -.167E-01 0.243E+01   -.281E-03 0.163E-03 -.489E-03
 -----------------------------------------------------------------------------------------------
   0.264E-05 -.610E-01 0.913E+01   -.249E-13 0.249E-13 0.284E-12   0.486E-05 0.560E-01 -.914E+01   -.310E-05 0.253E-03 0.386E-02


 POSITION                                       TOTAL-FORCE (eV/Angst)
 -----------------------------------------------------------------------------------
      0.00000      2.24926      1.27616         0.000000     -0.007162     -0.014650
      3.88532      2.25681      1.33239        -0.000001      0.005926     -0.001274
      1.94317      5.59806      1.33017         0.003215      0.000858     -0.008107
      5.82748      5.59807      1.33017        -0.003217      0.000856     -0.008107
      2.02251      1.08645      9.85524        -0.006416     -0.004154      0.006700
      5.74813      1.08645      9.85524         0.006416     -0.004152      0.006696
      3.88532      4.45814      9.79740         0.000002      0.004229      0.001237
      0.00000      4.58374      9.85215        -0.000004      0.004544     -0.000075
      0.00000     -0.01088     -0.03239         0.000002     -0.004668     -0.001442
      3.88532      0.02702     -0.02741         0.000000      0.002138      0.000539
      1.94305      3.35842     -0.04075         0.000209      0.000005     -0.001232
      5.82760      3.35843     -0.04075        -0.000207      0.000003     -0.001232
      1.93438      1.12382      3.46009         0.003417      0.000760      0.001350
      5.83626      1.12382      3.46009        -0.003418      0.000759      0.001350
      3.88532      4.49061      3.47899        -0.000001      0.004017      0.017329
      0.00000      4.47847      3.46502        -0.000001     -0.001364      0.002112
      3.88532      2.22857      7.59945         0.000001     -0.001974     -0.006391
      1.88228      5.61389      7.60884         0.001227     -0.000311      0.002598
      5.88836      5.61389      7.60884        -0.001225     -0.000311      0.002600
 -----------------------------------------------------------------------------------
    total drift:                                0.000004     -0.004777     -0.008040


--------------------------------------------------------------------------------------------------------



  FREE ENERGIE OF THE ION-ELECTRON SYSTEM (eV)
  ---------------------------------------------------
  free  energy   TOTEN  =      -117.09212432 eV

  energy  without entropy=     -117.01510114  energy(sigma->0) =     -117.05361273

 d Force = 0.2814196E-04[ 0.202E-05, 0.543E-04]  d Energy = 0.3115853E-04-0.302E-05
 d Force = 0.1203315E+01[ 0.120E+01, 0.120E+01]  d Ewald  = 0.1203315E+01-0.480E-07


--------------------------------------------------------------------------------------------------------


    POTLOK:  cpu time    0.3016: real time    0.3030


--------------------------------------------------------------------------------------------------------


 stress matrix after NEB project (eV)
     -4.59358     -0.00009      0.00000
     -0.00009     -6.41945     -0.04450
      0.00000     -0.04450      0.45186
  FORCES: max atom, RMS     0.017788    0.007770
  FORCE total and by dimension    0.033869    0.017329
  Stress total and by dimension    7.906861    6.419447


--------------------------------------------------------------------------------------------------------


  
 reached required accuracy - stopping structural energy minimisation
     LOOP+:  cpu time   64.1352: real time   64.5060
    4ORBIT:  cpu time    0.0000: real time    0.0000



 total charge     

# of ion       s       p       d       f       tot
--------------------------------------------------
    1        2.183   6.370   0.944   0.043   9.540
    2        2.183   6.374   0.942   0.044   9.543
    3        2.183   6.370   0.935   0.043   9.530
    4        2.183   6.370   0.935   0.043   9.530
    5        2.196   6.347   0.982   0.040   9.566
    6        2.196   6.347   0.982   0.040   9.566
    7        2.183   6.360   0.947   0.042   9.532
    8        2.198   6.354   0.989   0.042   9.583
    9        0.864   1.377   0.000   0.000   2.241
   10        0.865   1.386   0.000   0.000   2.250
   11        0.864   1.369   0.000   0.000   2.233
   12        0.864   1.369   0.000   0.000   2.233
   13        1.507   2.834   0.019   0.000   4.359
   14        1.507   2.834   0.019   0.000   4.359
   15        1.508   2.833   0.019   0.000   4.360
   16        1.507   2.833   0.019   0.000   4.359
   17        1.506   2.825   0.015   0.000   4.347
   18        1.506   2.827   0.016   0.000   4.349
   19        1.506   2.827   0.016   0.000   4.349
--------------------------------------------------
tot         31.510  76.208   7.777   0.337 115.831




 magnetization (x)

# of ion       s       p       d       f       tot
--------------------------------------------------
    1       -0.000  -0.000  -0.000   0.000  -0.000
    2        0.000   0.000   0.000  -0.000   0.000
    3        0.000   0.000   0.000   0.000   0.000
    4       -0.000   0.000   0.000   0.000   0.000
    5       -0.000  -0.000  -0.000   0.000  -0.000
    6       -0.000  -0.000  -0.000   0.000  -0.000
    7       -0.000   0.000  -0.000   0.000  -0.000
    8       -0.000  -0.000  -0.000   0.000  -0.000
    9       -0.000   0.000   0.000   0.000   0.000
   10       -0.000   0.000   0.000   0.000   0.000
   11       -0.000   0.000   0.000   0.000   0.000
   12       -0.000   0.000   0.000   0.000   0.000
   13        0.000  -0.000   0.000   0.000  -0.000
   14        0.000  -0.000   0.000   0.000  -0.000
   15        0.000   0.000  -0.000   0.000   0.000
   16        0.000  -0.000  -0.000   0.000  -0.000
   17        0.000   0.000  -0.000   0.000   0.000
   18       -0.000   0.000  -0.000   0.000  -0.000
   19       -0.000  -0.000  -0.000   0.000  -0.000
--------------------------------------------------
tot         -0.000   0.000  -0.000   0.000  -0.000



 total amount of memory used by VASP MPI-rank0    84526. kBytes
=======================================================================

   base      :      30000. kBytes
   nonlr-proj:       4376. kBytes
   fftplans  :       5705. kBytes
   grid      :      15123. kBytes
   one-center:        120. kBytes
   wavefun   :      29202. kBytes

  
  
 General timing and accounting informations for this job:
 ========================================================
  
                  Total CPU time used (sec):     1124.658
                            User time (sec):      985.719
                          System time (sec):      138.939
                         Elapsed time (sec):     1133.073
  
                   Maximum memory used (kb):      181968.
                   Average memory used (kb):           0.
  
                          Minor page faults:        90453
                          Major page faults:            0
                 Voluntary context switches:         6212
