<?xml version="1.0" encoding="ISO-8859-1"?>
<modeling>
 <generator>
  <i name="program" type="string">vasp </i>
  <i name="version" type="string">5.4.4.18Apr17-6-g9f103f2a35  </i>
  <i name="subversion" type="string">(build Feb  5 2022 00:56:52) complex            parallel </i>
  <i name="platform" type="string">LinuxGNU </i>
  <i name="date" type="string">2022 02 10 </i>
  <i name="time" type="string">18:23:57 </i>
 </generator>
 <incar>
  <i type="string" name="PREC">accurate</i>
  <i type="string" name="ALGO"> Fast</i>
  <i type="int" name="ISPIN">     2</i>
  <i type="int" name="ICHARG">     1</i>
  <i type="int" name="NELM">   200</i>
  <i type="int" name="NELMIN">     6</i>
  <i type="int" name="IBRION">    -1</i>
  <i name="EDIFF">      0.00001000</i>
  <i type="int" name="NSW">     0</i>
  <i type="int" name="ISIF">     3</i>
  <i type="int" name="ISYM">     2</i>
  <i name="ENCUT">    520.00000000</i>
  <i type="int" name="NEDOS">  2001</i>
  <i type="string" name="LREAL"> Auto</i>
  <i type="int" name="ISMEAR">     2</i>
  <i name="SIGMA">      0.20000000</i>
  <i name="KSPACING">      0.50000000</i>
  <i type="logical" name="LWAVE"> F  </i>
  <i type="int" name="LORBIT">    11</i>
  <v type="int" name="KPOINT_BSE">    -1     0     0     0</v>
  <i type="int" name="NELM">   200</i>
 </incar>
 <structure name="primitive_cell" >
  <crystal>
   <varray name="basis" >
    <v>       2.31889200       0.00000000      -0.81985200 </v>
    <v>      -1.15944600       2.00822000      -0.81985200 </v>
    <v>       0.00000000       0.00000000       2.45955700 </v>
   </varray>
   <i name="volume">     11.45377644 </i>
   <varray name="rec_basis" >
    <v>       0.43124044       0.24897671      -0.00000000 </v>
    <v>      -0.00000000       0.49795341       0.00000000 </v>
    <v>       0.14374675       0.24897660       0.40657728 </v>
   </varray>
  </crystal>
  <varray name="positions" >
   <v>       0.00000000       0.00000000       0.00000000 </v>
  </varray>
 </structure>
 <varray name="primitive_index" >
  <v type="int" >        1 </v>
 </varray>
 <kpoints>
  <generation param="Gamma">
   <v type="int" name="divisions">       7        7        7 </v>
   <v name="usershift">      0.00000000       0.00000000       0.00000000 </v>
   <v name="genvec1">      0.14285714      -0.00000000       0.00000000 </v>
   <v name="genvec2">      0.00000000       0.14285714       0.00000000 </v>
   <v name="genvec3">      0.00000000      -0.00000000       0.14285714 </v>
   <v name="shift">      0.00000000       0.00000000       0.00000000 </v>
  </generation>
  <varray name="kpointlist" >
   <v>       0.00000000       0.00000000       0.00000000 </v>
   <v>       0.14285714       0.00000000       0.00000000 </v>
   <v>       0.28571429       0.00000000       0.00000000 </v>
   <v>       0.42857143       0.00000000       0.00000000 </v>
   <v>       0.14285714       0.14285714       0.00000000 </v>
   <v>       0.28571429       0.14285714       0.00000000 </v>
   <v>       0.42857143       0.14285714       0.00000000 </v>
   <v>       0.28571429       0.28571429       0.00000000 </v>
   <v>       0.14285714       0.14285714       0.14285714 </v>
   <v>       0.28571429       0.14285714       0.14285714 </v>
   <v>      -0.14285714       0.14285714       0.14285714 </v>
   <v>       0.28571429       0.28571429       0.14285714 </v>
   <v>      -0.28571429       0.28571429       0.14285714 </v>
   <v>      -0.42857143       0.42857143       0.14285714 </v>
   <v>      -0.28571429       0.42857143       0.14285714 </v>
   <v>      -0.42857143      -0.42857143       0.14285714 </v>
   <v>      -0.28571429       0.28571429       0.28571429 </v>
   <v>      -0.42857143       0.42857143       0.28571429 </v>
   <v>      -0.42857143      -0.42857143       0.28571429 </v>
   <v>      -0.42857143       0.42857143       0.42857143 </v>
  </varray>
  <varray name="weights" >
   <v>       0.00291545 </v>
   <v>       0.03498542 </v>
   <v>       0.03498542 </v>
   <v>       0.03498542 </v>
   <v>       0.06997085 </v>
   <v>       0.13994169 </v>
   <v>       0.06997085 </v>
   <v>       0.06997085 </v>
   <v>       0.02332362 </v>
   <v>       0.06997085 </v>
   <v>       0.01749271 </v>
   <v>       0.02332362 </v>
   <v>       0.06997085 </v>
   <v>       0.06997085 </v>
   <v>       0.06997085 </v>
   <v>       0.06997085 </v>
   <v>       0.01749271 </v>
   <v>       0.06997085 </v>
   <v>       0.02332362 </v>
   <v>       0.01749271 </v>
  </varray>
 </kpoints>
 <parameters>
  <separator name="general" >
   <i type="string" name="SYSTEM">unknown system</i>
   <i type="logical" name="LCOMPAT"> F  </i>
  </separator>
  <separator name="electronic" >
   <i type="string" name="PREC">accura</i>
   <i name="ENMAX">    520.00000000</i>
   <i name="ENAUG">    511.36800000</i>
   <i name="EDIFF">      0.00001000</i>
   <i type="int" name="IALGO">    68</i>
   <i type="int" name="IWAVPR">    10</i>
   <i type="int" name="NBANDS">     9</i>
   <i name="NELECT">      8.00000000</i>
   <i type="int" name="TURBO">     0</i>
   <i type="int" name="IRESTART">     0</i>
   <i type="int" name="NREBOOT">     0</i>
   <i type="int" name="NMIN">     0</i>
   <i name="EREF">      0.00000000</i>
   <separator name="electronic smearing" >
    <i type="int" name="ISMEAR">     2</i>
    <i name="SIGMA">      0.20000000</i>
    <i name="KSPACING">      0.50000000</i>
    <i type="logical" name="KGAMMA"> T  </i>
   </separator>
   <separator name="electronic projectors" >
    <i type="logical" name="LREAL"> T  </i>
    <v name="ROPT">     -0.00025000</v>
    <i type="int" name="LMAXPAW">  -100</i>
    <i type="int" name="LMAXMIX">     2</i>
    <i type="logical" name="NLSPLINE"> F  </i>
   </separator>
   <separator name="electronic startup" >
    <i type="int" name="ISTART">     0</i>
    <i type="int" name="ICHARG">     1</i>
    <i type="int" name="INIWAV">     1</i>
   </separator>
   <separator name="electronic spin" >
    <i type="int" name="ISPIN">     2</i>
    <i type="logical" name="LNONCOLLINEAR"> F  </i>
    <v name="MAGMOM">      1.00000000</v>
    <i name="NUPDOWN">     -1.00000000</i>
    <i type="logical" name="LSORBIT"> F  </i>
    <v name="SAXIS">      0.00000000      0.00000000      1.00000000</v>
    <i type="logical" name="LSPIRAL"> F  </i>
    <v name="QSPIRAL">      0.00000000      0.00000000      0.00000000</v>
    <i type="logical" name="LZEROZ"> F  </i>
   </separator>
   <separator name="electronic exchange-correlation" >
    <i type="logical" name="LASPH"> F  </i>
    <i type="logical" name="LMETAGGA"> F  </i>
   </separator>
   <separator name="electronic convergence" >
    <i type="int" name="NELM">   200</i>
    <i type="int" name="NELMDL">    -5</i>
    <i type="int" name="NELMIN">     6</i>
    <i name="ENINI">    520.00000000</i>
    <separator name="electronic convergence detail" >
     <i type="logical" name="LDIAG"> T  </i>
     <i type="logical" name="LSUBROT"> F  </i>
     <i name="WEIMIN">      0.00000000</i>
     <i name="EBREAK">      0.00000028</i>
     <i name="DEPER">      0.30000000</i>
     <i type="int" name="NRMM">     4</i>
     <i name="TIME">      0.40000000</i>
    </separator>
   </separator>
   <separator name="electronic mixer" >
    <i name="AMIX">      0.40000000</i>
    <i name="BMIX">      1.00000000</i>
    <i name="AMIN">      0.10000000</i>
    <i name="AMIX_MAG">      1.60000000</i>
    <i name="BMIX_MAG">      1.00000000</i>
    <separator name="electronic mixer details" >
     <i type="int" name="IMIX">     4</i>
     <i type="logical" name="MIXFIRST"> F  </i>
     <i type="int" name="MAXMIX">   -45</i>
     <i name="WC">    100.00000000</i>
     <i type="int" name="INIMIX">     1</i>
     <i type="int" name="MIXPRE">     1</i>
     <i type="int" name="MREMOVE">     5</i>
    </separator>
   </separator>
   <separator name="electronic dipolcorrection" >
    <i type="logical" name="LDIPOL"> F  </i>
    <i type="logical" name="LMONO"> F  </i>
    <i type="int" name="IDIPOL">     0</i>
    <i name="EPSILON">      1.00000000</i>
    <v name="DIPOL">   -100.00000000   -100.00000000   -100.00000000</v>
    <i name="EFIELD">      0.00000000</i>
   </separator>
  </separator>
  <separator name="grids" >
   <i type="int" name="NGX">    18</i>
   <i type="int" name="NGY">    18</i>
   <i type="int" name="NGZ">    18</i>
   <i type="int" name="NGXF">    36</i>
   <i type="int" name="NGYF">    36</i>
   <i type="int" name="NGZF">    36</i>
   <i type="logical" name="ADDGRID"> F  </i>
  </separator>
  <separator name="ionic" >
   <i type="int" name="NSW">     0</i>
   <i type="int" name="IBRION">    -1</i>
   <i type="int" name="MDALGO">     0</i>
   <i type="int" name="ISIF">     3</i>
   <i name="PSTRESS">      0.00000000</i>
   <i name="EDIFFG">      0.00010000</i>
   <i type="int" name="NFREE">     0</i>
   <i name="POTIM">      0.50000000</i>
   <i name="SMASS">     -3.00000000</i>
   <i name="SCALEE">      1.00000000</i>
  </separator>
  <separator name="ionic md" >
   <i name="TEBEG">      0.00010000</i>
   <i name="TEEND">      0.00010000</i>
   <i type="int" name="NBLOCK">     1</i>
   <i type="int" name="KBLOCK">     1</i>
   <i type="int" name="NPACO">   256</i>
   <i name="APACO">     16.00000000</i>
  </separator>
  <separator name="symmetry" >
   <i type="int" name="ISYM">     2</i>
   <i name="SYMPREC">      0.00001000</i>
  </separator>
  <separator name="dos" >
   <i type="int" name="LORBIT">    11</i>
   <v name="RWIGS">     -1.00000000</v>
   <i type="int" name="NEDOS">  2001</i>
   <i name="EMIN">     10.00000000</i>
   <i name="EMAX">    -10.00000000</i>
   <i name="EFERMI">      0.00000000</i>
  </separator>
  <separator name="writing" >
   <i type="int" name="NWRITE">     2</i>
   <i type="logical" name="LWAVE"> F  </i>
   <i type="logical" name="LDOWNSAMPLE"> F  </i>
   <i type="logical" name="LCHARG"> T  </i>
   <i type="logical" name="LPARD"> F  </i>
   <i type="logical" name="LVTOT"> F  </i>
   <i type="logical" name="LVHAR"> F  </i>
   <i type="logical" name="LELF"> F  </i>
   <i type="logical" name="LOPTICS"> F  </i>
   <v name="STM">      0.00000000      0.00000000      0.00000000      0.00000000      0.00000000      0.00000000      0.00000000</v>
  </separator>
  <separator name="performance" >
   <i type="int" name="NPAR">     1</i>
   <i type="int" name="NSIM">     4</i>
   <i type="int" name="NBLK">    -1</i>
   <i type="logical" name="LPLANE"> T  </i>
   <i type="logical" name="LSCALAPACK"> T  </i>
   <i type="logical" name="LSCAAWARE"> F  </i>
   <i type="logical" name="LSCALU"> F  </i>
   <i type="logical" name="LASYNC"> F  </i>
   <i type="logical" name="LORBITALREAL"> F  </i>
  </separator>
  <separator name="miscellaneous" >
   <i type="int" name="IDIOT">     3</i>
   <i type="int" name="ISPECIAL">     0</i>
   <i type="logical" name="LMUSIC"> F  </i>
   <v name="POMASS">     55.84700000</v>
   <v name="DARWINR">      0.00000000</v>
   <v name="DARWINV">      1.00000000</v>
   <i type="logical" name="LCORR"> T  </i>
  </separator>
  <i type="logical" name="GGA_COMPAT"> T  </i>
  <i type="logical" name="LBERRY"> F  </i>
  <i type="int" name="ICORELEVEL">     0</i>
  <i type="logical" name="LDAU"> F  </i>
  <i type="int" name="I_CONSTRAINED_M">     0</i>
  <separator name="electronic exchange-correlation" >
   <i type="string" name="GGA">--</i>
   <i type="int" name="VOSKOWN">     0</i>
   <i type="logical" name="LHFCALC"> F  </i>
   <i type="string" name="PRECFOCK"></i>
   <i type="logical" name="LSYMGRAD"> F  </i>
   <i type="logical" name="LHFONE"> F  </i>
   <i type="logical" name="LRHFCALC"> F  </i>
   <i type="logical" name="LTHOMAS"> F  </i>
   <i type="logical" name="LMODELHF"> F  </i>
   <i name="ENCUT4O">     -1.00000000</i>
   <i type="int" name="EXXOEP">     0</i>
   <i type="int" name="FOURORBIT">     0</i>
   <i name="AEXX">      0.00000000</i>
   <i name="HFALPHA">      0.00000000</i>
   <i name="MCALPHA">      0.00000000</i>
   <i name="ALDAX">      1.00000000</i>
   <i name="AGGAX">      1.00000000</i>
   <i name="ALDAC">      1.00000000</i>
   <i name="AGGAC">      1.00000000</i>
   <i type="int" name="NKREDX">     1</i>
   <i type="int" name="NKREDY">     1</i>
   <i type="int" name="NKREDZ">     1</i>
   <i type="logical" name="SHIFTRED"> F  </i>
   <i type="logical" name="ODDONLY"> F  </i>
   <i type="logical" name="EVENONLY"> F  </i>
   <i type="int" name="LMAXFOCK">     0</i>
   <i type="int" name="NMAXFOCKAE">     0</i>
   <i type="logical" name="LFOCKAEDFT"> F  </i>
   <i name="HFSCREEN">      0.00000000</i>
   <i name="HFSCREENC">      0.00000000</i>
   <i type="int" name="NBANDSGWLOW">     0</i>
  </separator>
  <separator name="vdW DFT" >
   <i type="logical" name="LUSE_VDW"> F  </i>
   <i name="Zab_VDW">     -0.84910000</i>
   <i name="PARAM1">      0.12340000</i>
   <i name="PARAM2">      1.00000000</i>
   <i name="PARAM3">      0.00000000</i>
  </separator>
  <separator name="model GW" >
   <i type="int" name="MODEL_GW">     0</i>
   <i name="MODEL_EPS0">      6.87226586</i>
   <i name="MODEL_ALPHA">      1.00000000</i>
  </separator>
  <separator name="linear response parameters" >
   <i type="logical" name="LEPSILON"> F  </i>
   <i type="logical" name="LRPA"> F  </i>
   <i type="logical" name="LNABLA"> F  </i>
   <i type="logical" name="LVEL"> F  </i>
   <i type="int" name="KINTER">     0</i>
   <i name="CSHIFT">      0.10000000</i>
   <i name="OMEGAMAX">     -1.00000000</i>
   <i name="DEG_THRESHOLD">      0.00200000</i>
   <i name="RTIME">     -0.10000000</i>
   <i name="WPLASMAI">      0.00000000</i>
   <v name="DFIELD">      0.00000000      0.00000000      0.00000000</v>
   <v name="WPLASMA">      0.00000000      0.00000000      0.00000000      0.00000000      0.00000000      0.00000000      0.00000000      0.00000000      0.00000000</v>
  </separator>
  <separator name="orbital magnetization" >
   <i type="logical" name="NUCIND"> F  </i>
   <v name="MAGPOS">      0.00000000      0.00000000      0.00000000</v>
   <i type="logical" name="LNICSALL"> T  </i>
   <i type="logical" name="ORBITALMAG"> F  </i>
   <i type="logical" name="LMAGBLOCH"> F  </i>
   <i type="logical" name="LCHIMAG"> F  </i>
   <i type="logical" name="LGAUGE"> T  </i>
   <i type="int" name="MAGATOM">     0</i>
   <v name="MAGDIPOL">      0.00000000      0.00000000      0.00000000</v>
   <v name="AVECCONST">      0.00000000      0.00000000      0.00000000</v>
  </separator>
  <separator name="response functions" >
   <i type="logical" name="LADDER"> F  </i>
   <i type="logical" name="LRPAFORCE"> F  </i>
   <i type="logical" name="LFXC"> F  </i>
   <i type="logical" name="LHARTREE"> T  </i>
   <i type="int" name="IBSE">     0</i>
   <v type="int" name="KPOINT">    -1     0     0     0</v>
   <i type="logical" name="LTCTE"> F  </i>
   <i type="logical" name="LTETE"> F  </i>
   <i type="logical" name="LTRIPLET"> F  </i>
   <i type="logical" name="LFXCEPS"> F  </i>
   <i type="logical" name="LFXHEG"> F  </i>
   <i type="int" name="NATURALO">     2</i>
   <i type="logical" name="L2ORDER"> F  </i>
   <i type="logical" name="LMP2LT"> F  </i>
   <i type="logical" name="LUSEW"> F  </i>
   <i name="ENCUTGW">     -2.00000000</i>
   <i name="ENCUTGWSOFT">     -2.00000000</i>
   <i name="ENCUTLF">     -1.00000000</i>
   <i type="int" name="LMAXMP2">    -1</i>
   <i name="SCISSOR">      0.00000000</i>
   <i type="int" name="NOMEGA">     0</i>
   <i type="int" name="NOMEGAR">     0</i>
   <i type="int" name="NBANDSGW">    -1</i>
   <i type="int" name="NBANDSO">    -1</i>
   <i type="int" name="NBANDSV">    -1</i>
   <i type="int" name="NELM">   200</i>
   <i type="int" name="NELMHF">     1</i>
   <i type="int" name="DIM">     3</i>
   <i type="int" name="ANTIRES">     0</i>
   <i name="OMEGAMAX">    -30.00000000</i>
   <i name="OMEGAMIN">    -30.00000000</i>
   <i name="OMEGATL">   -200.00000000</i>
   <i type="int" name="OMEGAGRID">   140</i>
   <i name="CSHIFT">     -0.10000000</i>
   <i type="logical" name="SELFENERGY"> F  </i>
   <i type="logical" name="LSPECTRAL"> F  </i>
   <i type="logical" name="LSPECTRALGW"> F  </i>
   <i type="logical" name="LSINGLES"> F  </i>
   <i type="logical" name="LFERMIGW"> F  </i>
   <i type="logical" name="ODDONLYGW"> F  </i>
   <i type="logical" name="EVENONLYGW"> F  </i>
   <i type="int" name="NKREDLFX">     1</i>
   <i type="int" name="NKREDLFY">     1</i>
   <i type="int" name="NKREDLFZ">     1</i>
   <i type="int" name="MAXMEM">  2800</i>
   <i type="int" name="TELESCOPE">     0</i>
   <i type="int" name="TAUPAR">     1</i>
   <i type="int" name="OMEGAPAR">    -1</i>
   <i name="LAMBDA">      1.00000000</i>
  </separator>
  <separator name="External order field" >
   <i name="OFIELD_KAPPA">      0.00000000</i>
   <v name="OFIELD_K">      0.00000000      0.00000000      0.00000000</v>
   <i name="OFIELD_Q6_NEAR">      0.00000000</i>
   <i name="OFIELD_Q6_FAR">      0.00000000</i>
   <i name="OFIELD_A">      0.00000000</i>
  </separator>
 </parameters>
 <atominfo>
  <atoms>       1 </atoms>
  <types>       1 </types>
  <array name="atoms" >
   <dimension dim="1">ion</dimension>
   <field type="string">element</field>
   <field type="int">atomtype</field>
   <set>
    <rc><c>Fe</c><c>   1</c></rc>
   </set>
  </array>
  <array name="atomtypes" >
   <dimension dim="1">type</dimension>
   <field type="int">atomspertype</field>
   <field type="string">element</field>
   <field>mass</field>
   <field>valence</field>
   <field type="string">pseudopotential</field>
   <set>
    <rc><c>   1</c><c>Fe</c><c>     55.84700000</c><c>      8.00000000</c><c>  PAW_PBE Fe 06Sep2000                  </c></rc>
   </set>
  </array>
 </atominfo>
 <structure name="initialpos" >
  <crystal>
   <varray name="basis" >
    <v>       2.31889200       0.00000000      -0.81985200 </v>
    <v>      -1.15944600       2.00822000      -0.81985200 </v>
    <v>       0.00000000       0.00000000       2.45955700 </v>
   </varray>
   <i name="volume">     11.45377644 </i>
   <varray name="rec_basis" >
    <v>       0.43124044       0.24897671      -0.00000000 </v>
    <v>      -0.00000000       0.49795341       0.00000000 </v>
    <v>       0.14374675       0.24897660       0.40657728 </v>
   </varray>
  </crystal>
  <varray name="positions" >
   <v>       0.00000000       0.00000000       0.00000000 </v>
  </varray>
 </structure>
 <calculation>
  <scstep>
   <time name="dav">    0.20    0.20</time>
   <time name="total">    0.25    0.25</time>
   <energy>
    <i name="alphaZ">     60.34147461 </i>
    <i name="ewald">   -590.45898340 </i>
    <i name="hartreedc">   -112.16278697 </i>
    <i name="XCdc">      4.01481972 </i>
    <i name="pawpsdc">    554.72672789 </i>
    <i name="pawaedc">   -562.43091908 </i>
    <i name="eentropy">     -0.00021481 </i>
    <i name="bandstr">     66.92539112 </i>
    <i name="atom">    594.31268070 </i>
    <i name="e_fr_energy">     15.26818979 </i>
    <i name="e_wo_entrp">     15.26840459 </i>
    <i name="e_0_energy">     15.26824349 </i>
   </energy>
  </scstep>
  <scstep>
   <time name="dav">    0.20    0.20</time>
   <time name="total">    0.20    0.20</time>
   <energy>
    <i name="e_fr_energy">     -8.92041922 </i>
    <i name="e_wo_entrp">     -8.91927007 </i>
    <i name="e_0_energy">     -8.92013193 </i>
   </energy>
  </scstep>
  <scstep>
   <time name="dav">    0.22    0.22</time>
   <time name="total">    0.22    0.22</time>
   <energy>
    <i name="e_fr_energy">     -9.27237773 </i>
    <i name="e_wo_entrp">     -9.27285501 </i>
    <i name="e_0_energy">     -9.27249705 </i>
   </energy>
  </scstep>
  <scstep>
   <time name="dav">    0.22    0.22</time>
   <time name="total">    0.22    0.22</time>
   <energy>
    <i name="e_fr_energy">     -9.27370715 </i>
    <i name="e_wo_entrp">     -9.27418748 </i>
    <i name="e_0_energy">     -9.27382724 </i>
   </energy>
  </scstep>
  <scstep>
   <time name="dav">    0.21    0.21</time>
   <time name="total">    0.23    0.23</time>
   <energy>
    <i name="e_fr_energy">     -9.27371903 </i>
    <i name="e_wo_entrp">     -9.27419939 </i>
    <i name="e_0_energy">     -9.27383912 </i>
   </energy>
  </scstep>
  <scstep>
   <time name="diag">    0.03    0.03</time>
   <time name="diis">    0.17    0.17</time>
   <time name="orth">    0.00    0.00</time>
   <time name="total">    0.26    0.26</time>
   <energy>
    <i name="e_fr_energy">     -8.22779343 </i>
    <i name="e_wo_entrp">     -8.22890870 </i>
    <i name="e_0_energy">     -8.22807224 </i>
   </energy>
  </scstep>
  <scstep>
   <time name="diag">    0.03    0.03</time>
   <time name="diis">    0.17    0.17</time>
   <time name="orth">    0.00    0.00</time>
   <time name="total">    0.27    0.27</time>
   <energy>
    <i name="e_fr_energy">     -8.22157377 </i>
    <i name="e_wo_entrp">     -8.21972876 </i>
    <i name="e_0_energy">     -8.22111252 </i>
   </energy>
  </scstep>
  <scstep>
   <time name="diag">    0.03    0.03</time>
   <time name="diis">    0.17    0.17</time>
   <time name="orth">    0.00    0.00</time>
   <time name="total">    0.26    0.26</time>
   <energy>
    <i name="e_fr_energy">     -8.24762076 </i>
    <i name="e_wo_entrp">     -8.24678122 </i>
    <i name="e_0_energy">     -8.24741087 </i>
   </energy>
  </scstep>
  <scstep>
   <time name="diag">    0.03    0.03</time>
   <time name="diis">    0.17    0.17</time>
   <time name="orth">    0.00    0.00</time>
   <time name="total">    0.26    0.26</time>
   <energy>
    <i name="e_fr_energy">     -8.24173941 </i>
    <i name="e_wo_entrp">     -8.24265727 </i>
    <i name="e_0_energy">     -8.24196888 </i>
   </energy>
  </scstep>
  <scstep>
   <time name="diag">    0.03    0.03</time>
   <time name="diis">    0.16    0.17</time>
   <time name="orth">    0.00    0.00</time>
   <time name="total">    0.26    0.26</time>
   <energy>
    <i name="e_fr_energy">     -8.24298131 </i>
    <i name="e_wo_entrp">     -8.24395627 </i>
    <i name="e_0_energy">     -8.24322505 </i>
   </energy>
  </scstep>
  <scstep>
   <time name="diag">    0.03    0.03</time>
   <time name="diis">    0.17    0.17</time>
   <time name="orth">    0.00    0.00</time>
   <time name="total">    0.26    0.26</time>
   <energy>
    <i name="e_fr_energy">     -8.24683415 </i>
    <i name="e_wo_entrp">     -8.24755619 </i>
    <i name="e_0_energy">     -8.24701466 </i>
   </energy>
  </scstep>
  <scstep>
   <time name="diag">    0.03    0.03</time>
   <time name="diis">    0.17    0.17</time>
   <time name="orth">    0.00    0.00</time>
   <time name="total">    0.26    0.26</time>
   <energy>
    <i name="e_fr_energy">     -8.24754220 </i>
    <i name="e_wo_entrp">     -8.24824990 </i>
    <i name="e_0_energy">     -8.24771913 </i>
   </energy>
  </scstep>
  <scstep>
   <time name="diag">    0.03    0.03</time>
   <time name="diis">    0.16    0.16</time>
   <time name="orth">    0.00    0.00</time>
   <time name="total">    0.25    0.25</time>
   <energy>
    <i name="e_fr_energy">     -8.24775755 </i>
    <i name="e_wo_entrp">     -8.24818366 </i>
    <i name="e_0_energy">     -8.24786408 </i>
   </energy>
  </scstep>
  <scstep>
   <time name="diag">    0.03    0.03</time>
   <time name="diis">    0.10    0.10</time>
   <time name="orth">    0.00    0.00</time>
   <time name="total">    0.18    0.18</time>
   <energy>
    <i name="alphaZ">     60.34147461 </i>
    <i name="ewald">   -590.45898340 </i>
    <i name="hartreedc">    -95.74536287 </i>
    <i name="XCdc">      4.39270618 </i>
    <i name="pawpsdc">    719.37504561 </i>
    <i name="pawaedc">   -728.48250878 </i>
    <i name="eentropy">      0.00042528 </i>
    <i name="bandstr">     28.01676418 </i>
    <i name="atom">    594.31268070 </i>
    <i name="e_fr_energy">     -8.24775849 </i>
    <i name="e_wo_entrp">     -8.24818377 </i>
    <i name="e_0_energy">     -8.24786481 </i>
   </energy>
  </scstep>
  <structure>
   <crystal>
    <varray name="basis" >
     <v>       2.31889200       0.00000000      -0.81985200 </v>
     <v>      -1.15944600       2.00822000      -0.81985200 </v>
     <v>       0.00000000       0.00000000       2.45955700 </v>
    </varray>
    <i name="volume">     11.45377644 </i>
    <varray name="rec_basis" >
     <v>       0.43124044       0.24897671      -0.00000000 </v>
     <v>      -0.00000000       0.49795341       0.00000000 </v>
     <v>       0.14374675       0.24897660       0.40657728 </v>
    </varray>
   </crystal>
   <varray name="positions" >
    <v>       0.00000000       0.00000000       0.00000000 </v>
   </varray>
  </structure>
  <varray name="forces" >
   <v>       0.00000000      -0.00000000      -0.00000000 </v>
  </varray>
  <varray name="stress" >
   <v>       1.25984171       0.00000000       0.00000018 </v>
   <v>       0.00000000       1.25984248       0.00000031 </v>
   <v>       0.00000018       0.00000031       1.25984233 </v>
  </varray>
  <energy>
   <i name="e_fr_energy">     -8.24775849 </i>
   <i name="e_wo_entrp">     -8.24786481 </i>
   <i name="e_0_energy">      0.00042528 </i>
  </energy>
  <time name="totalsc">    3.96    3.99</time>
  <eigenvalues>
   <array>
    <dimension dim="1">band</dimension>
    <dimension dim="2">kpoint</dimension>
    <dimension dim="3">spin</dimension>
    <field>eigene</field>
    <field>occ</field>
    <set>
     <set comment="spin 1">
      <set comment="kpoint 1">
       <r>   -2.6765    1.0000 </r>
       <r>    3.3973    1.0000 </r>
       <r>    3.3973    1.0000 </r>
       <r>    3.3973    1.0000 </r>
       <r>    4.6585    1.0000 </r>
       <r>    4.6585    1.0000 </r>
       <r>   30.6464    0.0000 </r>
       <r>   30.6464    0.0000 </r>
       <r>   30.6464    0.0000 </r>
      </set>
      <set comment="kpoint 2">
       <r>   -1.8596    1.0000 </r>
       <r>    3.1850    1.0000 </r>
       <r>    3.3557    1.0000 </r>
       <r>    3.8309    1.0000 </r>
       <r>    4.4956    1.0000 </r>
       <r>    4.6785    1.0000 </r>
       <r>   26.4275    0.0000 </r>
       <r>   29.2044    0.0000 </r>
       <r>   30.1361    0.0000 </r>
      </set>
      <set comment="kpoint 3">
       <r>    0.0523    1.0000 </r>
       <r>    2.7287    1.0000 </r>
       <r>    3.3761    1.0000 </r>
       <r>    4.5302    1.0000 </r>
       <r>    4.7484    1.0000 </r>
       <r>    4.9015    1.0000 </r>
       <r>   19.7769    0.0000 </r>
       <r>   26.1641    0.0000 </r>
       <r>   28.7713    0.0000 </r>
      </set>
      <set comment="kpoint 4">
       <r>    0.8220    1.0000 </r>
       <r>    2.3817    1.0000 </r>
       <r>    4.6442    1.0000 </r>
       <r>    4.8308    1.0000 </r>
       <r>    5.4951    1.0230 </r>
       <r>    5.8900    0.0053 </r>
       <r>   14.1262    0.0000 </r>
       <r>   24.2600    0.0000 </r>
       <r>   26.1636    0.0000 </r>
      </set>
      <set comment="kpoint 5">
       <r>   -0.4184    1.0000 </r>
       <r>    2.9832    1.0000 </r>
       <r>    2.9846    1.0000 </r>
       <r>    4.3616    1.0000 </r>
       <r>    4.7175    1.0000 </r>
       <r>    4.8351    1.0000 </r>
       <r>   23.0224    0.0000 </r>
       <r>   24.1269    0.0000 </r>
       <r>   28.7281    0.0000 </r>
      </set>
      <set comment="kpoint 6">
       <r>    1.1176    1.0000 </r>
       <r>    2.5406    1.0000 </r>
       <r>    3.2767    1.0000 </r>
       <r>    4.5457    1.0000 </r>
       <r>    4.9714    1.0000 </r>
       <r>    6.4657    0.0000 </r>
       <r>   17.0194    0.0000 </r>
       <r>   21.4149    0.0000 </r>
       <r>   25.9560    0.0000 </r>
      </set>
      <set comment="kpoint 7">
       <r>    1.2175    1.0000 </r>
       <r>    2.3978    1.0000 </r>
       <r>    3.9343    1.0000 </r>
       <r>    4.6710    1.0000 </r>
       <r>    5.2838    0.9973 </r>
       <r>    8.4294    0.0000 </r>
       <r>   13.0791    0.0000 </r>
       <r>   20.5399    0.0000 </r>
       <r>   24.9173    0.0000 </r>
      </set>
      <set comment="kpoint 8">
       <r>    1.9120    1.0000 </r>
       <r>    2.4013    1.0000 </r>
       <r>    2.9722    1.0000 </r>
       <r>    4.7333    1.0000 </r>
       <r>    5.0519    1.0000 </r>
       <r>    9.8146    0.0000 </r>
       <r>   14.7874    0.0000 </r>
       <r>   16.0884    0.0000 </r>
       <r>   24.8516    0.0000 </r>
      </set>
      <set comment="kpoint 9">
       <r>    1.2727    1.0000 </r>
       <r>    2.5107    1.0000 </r>
       <r>    2.5107    1.0000 </r>
       <r>    4.7182    1.0000 </r>
       <r>    4.7182    1.0000 </r>
       <r>    6.4885    0.0000 </r>
       <r>   20.3963    0.0000 </r>
       <r>   20.3963    0.0000 </r>
       <r>   22.2202    0.0000 </r>
      </set>
      <set comment="kpoint 10">
       <r>    1.8285    1.0000 </r>
       <r>    2.2827    1.0000 </r>
       <r>    3.2022    1.0000 </r>
       <r>    4.7987    1.0000 </r>
       <r>    4.8531    1.0000 </r>
       <r>    9.2236    0.0000 </r>
       <r>   14.8782    0.0000 </r>
       <r>   18.9773    0.0000 </r>
       <r>   19.9845    0.0000 </r>
      </set>
      <set comment="kpoint 11">
       <r>   -1.0954    1.0000 </r>
       <r>    3.4466    1.0000 </r>
       <r>    3.4467    1.0000 </r>
       <r>    3.8306    1.0000 </r>
       <r>    3.9512    1.0000 </r>
       <r>    4.9391    1.0000 </r>
       <r>   25.9014    0.0000 </r>
       <r>   27.6259    0.0000 </r>
       <r>   27.6259    0.0000 </r>
      </set>
      <set comment="kpoint 12">
       <r>    2.1219    1.0000 </r>
       <r>    2.6584    1.0000 </r>
       <r>    2.6584    1.0000 </r>
       <r>    4.8743    1.0000 </r>
       <r>    4.8743    1.0000 </r>
       <r>   13.1081    0.0000 </r>
       <r>   13.1081    0.0000 </r>
       <r>   15.2178    0.0000 </r>
       <r>   18.8689    0.0000 </r>
      </set>
      <set comment="kpoint 13">
       <r>    0.6303    1.0000 </r>
       <r>    3.0273    1.0000 </r>
       <r>    3.1743    1.0000 </r>
       <r>    4.0922    1.0000 </r>
       <r>    4.8107    1.0000 </r>
       <r>    5.3960    0.9962 </r>
       <r>   20.3587    0.0000 </r>
       <r>   24.6705    0.0000 </r>
       <r>   24.9906    0.0000 </r>
      </set>
      <set comment="kpoint 14">
       <r>    1.2662    1.0000 </r>
       <r>    2.8810    1.0000 </r>
       <r>    3.1348    1.0000 </r>
       <r>    4.3905    1.0000 </r>
       <r>    5.8319    0.1807 </r>
       <r>    7.5219    0.0000 </r>
       <r>   14.4728    0.0000 </r>
       <r>   22.6878    0.0000 </r>
       <r>   23.6322    0.0000 </r>
      </set>
      <set comment="kpoint 15">
       <r>    1.7013    1.0000 </r>
       <r>    2.3095    1.0000 </r>
       <r>    3.3149    1.0000 </r>
       <r>    4.3455    1.0000 </r>
       <r>    5.3013    0.9967 </r>
       <r>    7.5565    0.0000 </r>
       <r>   17.7892    0.0000 </r>
       <r>   18.4748    0.0000 </r>
       <r>   26.8390    0.0000 </r>
      </set>
      <set comment="kpoint 16">
       <r>    1.7781    1.0000 </r>
       <r>    2.4294    1.0000 </r>
       <r>    2.9644    1.0000 </r>
       <r>    4.6667    1.0000 </r>
       <r>    5.5786    1.0515 </r>
       <r>   10.7724    0.0000 </r>
       <r>   13.4223    0.0000 </r>
       <r>   17.2774    0.0000 </r>
       <r>   26.5239    0.0000 </r>
      </set>
      <set comment="kpoint 17">
       <r>    1.4786    1.0000 </r>
       <r>    2.3579    1.0000 </r>
       <r>    4.0904    1.0000 </r>
       <r>    4.0904    1.0000 </r>
       <r>    4.8308    1.0000 </r>
       <r>    6.8328    0.0000 </r>
       <r>   21.1241    0.0000 </r>
       <r>   21.1241    0.0000 </r>
       <r>   22.6145    0.0000 </r>
      </set>
      <set comment="kpoint 18">
       <r>    1.5599    1.0000 </r>
       <r>    1.7947    1.0000 </r>
       <r>    4.1760    1.0000 </r>
       <r>    4.5447    1.0000 </r>
       <r>    5.7040    0.8061 </r>
       <r>   10.0832    0.0000 </r>
       <r>   15.6686    0.0000 </r>
       <r>   18.8803    0.0000 </r>
       <r>   22.6573    0.0000 </r>
      </set>
      <set comment="kpoint 19">
       <r>    1.4454    1.0000 </r>
       <r>    1.4454    1.0000 </r>
       <r>    4.2713    1.0000 </r>
       <r>    5.5084    1.0293 </r>
       <r>    5.5084    1.0293 </r>
       <r>   14.0024    0.0000 </r>
       <r>   14.0024    0.0000 </r>
       <r>   15.3606    0.0000 </r>
       <r>   24.5833    0.0000 </r>
      </set>
      <set comment="kpoint 20">
       <r>    1.1118    1.0000 </r>
       <r>    1.1140    1.0000 </r>
       <r>    5.4546    1.0070 </r>
       <r>    5.4546    1.0070 </r>
       <r>    5.6585    0.9596 </r>
       <r>   13.2210    0.0000 </r>
       <r>   16.3531    0.0000 </r>
       <r>   16.3531    0.0000 </r>
       <r>   21.4239    0.0000 </r>
      </set>
     </set>
     <set comment="spin 2">
      <set comment="kpoint 1">
       <r>   -2.4450    1.0000 </r>
       <r>    5.4653    1.0106 </r>
       <r>    5.4653    1.0106 </r>
       <r>    5.4653    1.0106 </r>
       <r>    7.4514    0.0000 </r>
       <r>    7.4514    0.0000 </r>
       <r>   30.4559    0.0000 </r>
       <r>   30.4559    0.0000 </r>
       <r>   30.4560    0.0000 </r>
      </set>
      <set comment="kpoint 2">
       <r>   -1.6198    1.0000 </r>
       <r>    5.2066    0.9993 </r>
       <r>    5.3856    0.9956 </r>
       <r>    5.9418   -0.0491 </r>
       <r>    7.2218    0.0000 </r>
       <r>    7.4749    0.0000 </r>
       <r>   26.7714    0.0000 </r>
       <r>   29.2400    0.0000 </r>
       <r>   30.2171    0.0000 </r>
      </set>
      <set comment="kpoint 3">
       <r>    0.4849    1.0000 </r>
       <r>    4.6579    1.0000 </r>
       <r>    5.0916    1.0000 </r>
       <r>    7.1343    0.0000 </r>
       <r>    7.1447    0.0000 </r>
       <r>    7.5670    0.0000 </r>
       <r>   20.5969    0.0000 </r>
       <r>   26.3131    0.0000 </r>
       <r>   29.5823    0.0000 </r>
      </set>
      <set comment="kpoint 4">
       <r>    2.0705    1.0000 </r>
       <r>    4.2462    1.0000 </r>
       <r>    5.9272   -0.0418 </r>
       <r>    7.3087    0.0000 </r>
       <r>    7.6840    0.0000 </r>
       <r>    8.2629    0.0000 </r>
       <r>   15.4214    0.0000 </r>
       <r>   24.3720    0.0000 </r>
       <r>   26.8391    0.0000 </r>
      </set>
      <set comment="kpoint 5">
       <r>   -0.1178    1.0000 </r>
       <r>    4.9179    1.0000 </r>
       <r>    4.9522    1.0000 </r>
       <r>    6.8923    0.0000 </r>
       <r>    6.9944    0.0000 </r>
       <r>    7.6203    0.0000 </r>
       <r>   23.5990    0.0000 </r>
       <r>   24.6952    0.0000 </r>
       <r>   29.4445    0.0000 </r>
      </set>
      <set comment="kpoint 6">
       <r>    1.9994    1.0000 </r>
       <r>    4.3967    1.0000 </r>
       <r>    4.7954    1.0000 </r>
       <r>    7.1159    0.0000 </r>
       <r>    7.7074    0.0000 </r>
       <r>    8.5143    0.0000 </r>
       <r>   17.9889    0.0000 </r>
       <r>   22.0316    0.0000 </r>
       <r>   26.5281    0.0000 </r>
      </set>
      <set comment="kpoint 7">
       <r>    2.6438    1.0000 </r>
       <r>    4.2208    1.0000 </r>
       <r>    5.3629    0.9951 </r>
       <r>    7.2747    0.0000 </r>
       <r>    7.8369    0.0000 </r>
       <r>    9.8594    0.0000 </r>
       <r>   14.4862    0.0000 </r>
       <r>   21.1431    0.0000 </r>
       <r>   25.4253    0.0000 </r>
      </set>
      <set comment="kpoint 8">
       <r>    3.3947    1.0000 </r>
       <r>    4.0891    1.0000 </r>
       <r>    4.5296    1.0000 </r>
       <r>    7.3099    0.0000 </r>
       <r>    7.6806    0.0000 </r>
       <r>   11.2741    0.0000 </r>
       <r>   15.8407    0.0000 </r>
       <r>   16.9936    0.0000 </r>
       <r>   25.4491    0.0000 </r>
      </set>
      <set comment="kpoint 9">
       <r>    1.7626    1.0000 </r>
       <r>    4.3329    1.0000 </r>
       <r>    4.3329    1.0000 </r>
       <r>    7.4852    0.0000 </r>
       <r>    7.4852    0.0000 </r>
       <r>    8.5436    0.0000 </r>
       <r>   21.0761    0.0000 </r>
       <r>   21.0761    0.0000 </r>
       <r>   23.0364    0.0000 </r>
      </set>
      <set comment="kpoint 10">
       <r>    3.1879    1.0000 </r>
       <r>    4.0109    1.0000 </r>
       <r>    4.5029    1.0000 </r>
       <r>    7.5456    0.0000 </r>
       <r>    7.7076    0.0000 </r>
       <r>   10.7540    0.0000 </r>
       <r>   15.9392    0.0000 </r>
       <r>   19.6752    0.0000 </r>
       <r>   20.7201    0.0000 </r>
      </set>
      <set comment="kpoint 11">
       <r>   -0.8359    1.0000 </r>
       <r>    5.4658    1.0107 </r>
       <r>    5.4658    1.0107 </r>
       <r>    5.9478   -0.0507 </r>
       <r>    6.5373    0.0000 </r>
       <r>    7.7647    0.0000 </r>
       <r>   26.1671    0.0000 </r>
       <r>   28.1640    0.0000 </r>
       <r>   28.1640    0.0000 </r>
      </set>
      <set comment="kpoint 12">
       <r>    3.7213    1.0000 </r>
       <r>    4.1419    1.0000 </r>
       <r>    4.1419    1.0000 </r>
       <r>    7.7029    0.0000 </r>
       <r>    7.7029    0.0000 </r>
       <r>   14.1915    0.0000 </r>
       <r>   14.1915    0.0000 </r>
       <r>   16.1865    0.0000 </r>
       <r>   19.6010    0.0000 </r>
      </set>
      <set comment="kpoint 13">
       <r>    1.1324    1.0000 </r>
       <r>    5.0487    1.0000 </r>
       <r>    5.1352    0.9999 </r>
       <r>    6.3858    0.0002 </r>
       <r>    7.0300    0.0000 </r>
       <r>    8.0361    0.0000 </r>
       <r>   21.1570    0.0000 </r>
       <r>   25.3770    0.0000 </r>
       <r>   25.3901    0.0000 </r>
      </set>
      <set comment="kpoint 14">
       <r>    2.6300    1.0000 </r>
       <r>    4.7877    1.0000 </r>
       <r>    4.8211    1.0000 </r>
       <r>    6.7936    0.0000 </r>
       <r>    8.1960    0.0000 </r>
       <r>    9.1526    0.0000 </r>
       <r>   15.6745    0.0000 </r>
       <r>   23.3629    0.0000 </r>
       <r>   24.0332    0.0000 </r>
      </set>
      <set comment="kpoint 15">
       <r>    2.8101    1.0000 </r>
       <r>    4.2775    1.0000 </r>
       <r>    5.2276    0.9989 </r>
       <r>    6.5922    0.0000 </r>
       <r>    7.6831    0.0000 </r>
       <r>    9.3779    0.0000 </r>
       <r>   18.7258    0.0000 </r>
       <r>   19.2581    0.0000 </r>
       <r>   27.2951    0.0000 </r>
      </set>
      <set comment="kpoint 16">
       <r>    3.4676    1.0000 </r>
       <r>    4.1591    1.0000 </r>
       <r>    4.8350    1.0000 </r>
       <r>    6.9688    0.0000 </r>
       <r>    7.9378    0.0000 </r>
       <r>   11.9748    0.0000 </r>
       <r>   14.6442    0.0000 </r>
       <r>   18.0921    0.0000 </r>
       <r>   26.9746    0.0000 </r>
      </set>
      <set comment="kpoint 17">
       <r>    2.4677    1.0000 </r>
       <r>    4.5336    1.0000 </r>
       <r>    6.1086    0.0004 </r>
       <r>    6.1086    0.0004 </r>
       <r>    7.0695    0.0000 </r>
       <r>    8.8399    0.0000 </r>
       <r>   21.8347    0.0000 </r>
       <r>   21.8348    0.0000 </r>
       <r>   23.3579    0.0000 </r>
      </set>
      <set comment="kpoint 18">
       <r>    3.2459    1.0000 </r>
       <r>    3.6976    1.0000 </r>
       <r>    6.2211    0.0037 </r>
       <r>    6.6484    0.0000 </r>
       <r>    8.0499    0.0000 </r>
       <r>   11.2821    0.0000 </r>
       <r>   16.5744    0.0000 </r>
       <r>   19.5024    0.0000 </r>
       <r>   23.4233    0.0000 </r>
      </set>
      <set comment="kpoint 19">
       <r>    3.3105    1.0000 </r>
       <r>    3.3105    1.0000 </r>
       <r>    6.2770    0.0018 </r>
       <r>    7.7947    0.0000 </r>
       <r>    7.7947    0.0000 </r>
       <r>   14.8615    0.0000 </r>
       <r>   14.8615    0.0000 </r>
       <r>   16.1051    0.0000 </r>
       <r>   25.2096    0.0000 </r>
      </set>
      <set comment="kpoint 20">
       <r>    2.9476    1.0000 </r>
       <r>    3.0269    1.0000 </r>
       <r>    7.7145    0.0000 </r>
       <r>    7.7145    0.0000 </r>
       <r>    8.0057    0.0000 </r>
       <r>   13.9037    0.0000 </r>
       <r>   16.8048    0.0000 </r>
       <r>   16.8048    0.0000 </r>
       <r>   22.4536    0.0000 </r>
      </set>
     </set>
    </set>
   </array>
  </eigenvalues>
  <separator name="orbital magnetization" >
   <v name="MAGDIPOLOUT">      0.00000000      0.00000000      0.00000000</v>
  </separator>
  <dos>
   <i name="efermi">      5.76631491 </i>
   <total>
    <array>
     <dimension dim="1">gridpoints</dimension>
     <dimension dim="2">spin</dimension>
     <field>energy</field>
     <field>total</field>
     <field>integrated</field>
     <set>
      <set comment="spin 1">
       <r>    -4.6765     0.0000     0.0000 </r>
       <r>    -4.6578     0.0000     0.0000 </r>
       <r>    -4.6392     0.0000     0.0000 </r>
       <r>    -4.6205     0.0000     0.0000 </r>
       <r>    -4.6018     0.0000     0.0000 </r>
       <r>    -4.5832     0.0000     0.0000 </r>
       <r>    -4.5645     0.0000     0.0000 </r>
       <r>    -4.5459     0.0000     0.0000 </r>
       <r>    -4.5272     0.0000     0.0000 </r>
       <r>    -4.5085     0.0000     0.0000 </r>
       <r>    -4.4899     0.0000     0.0000 </r>
       <r>    -4.4712     0.0000     0.0000 </r>
       <r>    -4.4526     0.0000     0.0000 </r>
       <r>    -4.4339     0.0000     0.0000 </r>
       <r>    -4.4152     0.0000     0.0000 </r>
       <r>    -4.3966     0.0000     0.0000 </r>
       <r>    -4.3779     0.0000     0.0000 </r>
       <r>    -4.3592     0.0000     0.0000 </r>
       <r>    -4.3406     0.0000     0.0000 </r>
       <r>    -4.3219     0.0000     0.0000 </r>
       <r>    -4.3033     0.0000     0.0000 </r>
       <r>    -4.2846     0.0000     0.0000 </r>
       <r>    -4.2659     0.0000     0.0000 </r>
       <r>    -4.2473     0.0000     0.0000 </r>
       <r>    -4.2286     0.0000     0.0000 </r>
       <r>    -4.2100     0.0000     0.0000 </r>
       <r>    -4.1913     0.0000     0.0000 </r>
       <r>    -4.1726     0.0000     0.0000 </r>
       <r>    -4.1540     0.0000     0.0000 </r>
       <r>    -4.1353     0.0000     0.0000 </r>
       <r>    -4.1166     0.0000     0.0000 </r>
       <r>    -4.0980     0.0000     0.0000 </r>
       <r>    -4.0793     0.0000     0.0000 </r>
       <r>    -4.0607     0.0000     0.0000 </r>
       <r>    -4.0420     0.0000     0.0000 </r>
       <r>    -4.0233     0.0000     0.0000 </r>
       <r>    -4.0047     0.0000     0.0000 </r>
       <r>    -3.9860     0.0000     0.0000 </r>
       <r>    -3.9674     0.0000     0.0000 </r>
       <r>    -3.9487     0.0000     0.0000 </r>
       <r>    -3.9300     0.0000     0.0000 </r>
       <r>    -3.9114     0.0000     0.0000 </r>
       <r>    -3.8927     0.0000     0.0000 </r>
       <r>    -3.8740     0.0000     0.0000 </r>
       <r>    -3.8554     0.0000     0.0000 </r>
       <r>    -3.8367     0.0000     0.0000 </r>
       <r>    -3.8181     0.0000     0.0000 </r>
       <r>    -3.7994     0.0000     0.0000 </r>
       <r>    -3.7807     0.0000     0.0000 </r>
       <r>    -3.7621     0.0000     0.0000 </r>
       <r>    -3.7434     0.0000     0.0000 </r>
       <r>    -3.7248     0.0000     0.0000 </r>
       <r>    -3.7061     0.0000     0.0000 </r>
       <r>    -3.6874     0.0000     0.0000 </r>
       <r>    -3.6688     0.0000     0.0000 </r>
       <r>    -3.6501     0.0000     0.0000 </r>
       <r>    -3.6315     0.0000     0.0000 </r>
       <r>    -3.6128     0.0000     0.0000 </r>
       <r>    -3.5941     0.0000     0.0000 </r>
       <r>    -3.5755     0.0000     0.0000 </r>
       <r>    -3.5568     0.0000     0.0000 </r>
       <r>    -3.5381     0.0000     0.0000 </r>
       <r>    -3.5195     0.0000     0.0000 </r>
       <r>    -3.5008     0.0000     0.0000 </r>
       <r>    -3.4822     0.0000     0.0000 </r>
       <r>    -3.4635     0.0000     0.0000 </r>
       <r>    -3.4448     0.0000     0.0000 </r>
       <r>    -3.4262     0.0000     0.0000 </r>
       <r>    -3.4075     0.0000     0.0000 </r>
       <r>    -3.3889     0.0000     0.0000 </r>
       <r>    -3.3702     0.0000     0.0000 </r>
       <r>    -3.3515     0.0000     0.0000 </r>
       <r>    -3.3329     0.0000     0.0000 </r>
       <r>    -3.3142     0.0000     0.0000 </r>
       <r>    -3.2955     0.0000     0.0000 </r>
       <r>    -3.2769     0.0000     0.0000 </r>
       <r>    -3.2582     0.0000     0.0000 </r>
       <r>    -3.2396     0.0000     0.0000 </r>
       <r>    -3.2209     0.0000     0.0000 </r>
       <r>    -3.2022     0.0001     0.0000 </r>
       <r>    -3.1836     0.0001     0.0000 </r>
       <r>    -3.1649     0.0001     0.0000 </r>
       <r>    -3.1463     0.0001     0.0000 </r>
       <r>    -3.1276     0.0001     0.0000 </r>
       <r>    -3.1089     0.0001     0.0000 </r>
       <r>    -3.0903     0.0001     0.0000 </r>
       <r>    -3.0716     0.0000     0.0000 </r>
       <r>    -3.0529    -0.0001     0.0000 </r>
       <r>    -3.0343    -0.0002     0.0000 </r>
       <r>    -3.0156    -0.0004    -0.0000 </r>
       <r>    -2.9970    -0.0007    -0.0000 </r>
       <r>    -2.9783    -0.0009    -0.0000 </r>
       <r>    -2.9596    -0.0011    -0.0001 </r>
       <r>    -2.9410    -0.0013    -0.0001 </r>
       <r>    -2.9223    -0.0014    -0.0001 </r>
       <r>    -2.9037    -0.0013    -0.0001 </r>
       <r>    -2.8850    -0.0010    -0.0001 </r>
       <r>    -2.8663    -0.0003    -0.0002 </r>
       <r>    -2.8477     0.0006    -0.0001 </r>
       <r>    -2.8290     0.0019    -0.0001 </r>
       <r>    -2.8103     0.0036    -0.0000 </r>
       <r>    -2.7917     0.0055     0.0001 </r>
       <r>    -2.7730     0.0075     0.0002 </r>
       <r>    -2.7544     0.0096     0.0004 </r>
       <r>    -2.7357     0.0116     0.0006 </r>
       <r>    -2.7170     0.0133     0.0009 </r>
       <r>    -2.6984     0.0145     0.0011 </r>
       <r>    -2.6797     0.0153     0.0014 </r>
       <r>    -2.6611     0.0154     0.0017 </r>
       <r>    -2.6424     0.0149     0.0020 </r>
       <r>    -2.6237     0.0138     0.0022 </r>
       <r>    -2.6051     0.0122     0.0025 </r>
       <r>    -2.5864     0.0103     0.0027 </r>
       <r>    -2.5677     0.0083     0.0028 </r>
       <r>    -2.5491     0.0062     0.0029 </r>
       <r>    -2.5304     0.0043     0.0030 </r>
       <r>    -2.5118     0.0025     0.0030 </r>
       <r>    -2.4931     0.0011     0.0031 </r>
       <r>    -2.4744     0.0001     0.0031 </r>
       <r>    -2.4558    -0.0006     0.0031 </r>
       <r>    -2.4371    -0.0009     0.0030 </r>
       <r>    -2.4185    -0.0009     0.0030 </r>
       <r>    -2.3998    -0.0008     0.0030 </r>
       <r>    -2.3811    -0.0004     0.0030 </r>
       <r>    -2.3625    -0.0000     0.0030 </r>
       <r>    -2.3438     0.0004     0.0030 </r>
       <r>    -2.3251     0.0008     0.0030 </r>
       <r>    -2.3065     0.0010     0.0030 </r>
       <r>    -2.2878     0.0010     0.0031 </r>
       <r>    -2.2692     0.0006     0.0031 </r>
       <r>    -2.2505    -0.0002     0.0031 </r>
       <r>    -2.2318    -0.0015     0.0030 </r>
       <r>    -2.2132    -0.0033     0.0030 </r>
       <r>    -2.1945    -0.0057     0.0029 </r>
       <r>    -2.1759    -0.0085     0.0027 </r>
       <r>    -2.1572    -0.0115     0.0025 </r>
       <r>    -2.1385    -0.0143     0.0022 </r>
       <r>    -2.1199    -0.0162     0.0019 </r>
       <r>    -2.1012    -0.0167     0.0016 </r>
       <r>    -2.0825    -0.0149     0.0013 </r>
       <r>    -2.0639    -0.0101     0.0012 </r>
       <r>    -2.0452    -0.0017     0.0011 </r>
       <r>    -2.0266     0.0108     0.0013 </r>
       <r>    -2.0079     0.0275     0.0018 </r>
       <r>    -1.9892     0.0479     0.0027 </r>
       <r>    -1.9706     0.0713     0.0041 </r>
       <r>    -1.9519     0.0963     0.0059 </r>
       <r>    -1.9333     0.1212     0.0081 </r>
       <r>    -1.9146     0.1442     0.0108 </r>
       <r>    -1.8959     0.1633     0.0139 </r>
       <r>    -1.8773     0.1770     0.0172 </r>
       <r>    -1.8586     0.1840     0.0206 </r>
       <r>    -1.8400     0.1836     0.0240 </r>
       <r>    -1.8213     0.1759     0.0273 </r>
       <r>    -1.8026     0.1615     0.0303 </r>
       <r>    -1.7840     0.1419     0.0330 </r>
       <r>    -1.7653     0.1186     0.0352 </r>
       <r>    -1.7466     0.0936     0.0369 </r>
       <r>    -1.7280     0.0687     0.0382 </r>
       <r>    -1.7093     0.0456     0.0391 </r>
       <r>    -1.6907     0.0256     0.0395 </r>
       <r>    -1.6720     0.0094     0.0397 </r>
       <r>    -1.6533    -0.0026     0.0397 </r>
       <r>    -1.6347    -0.0105     0.0395 </r>
       <r>    -1.6160    -0.0148     0.0392 </r>
       <r>    -1.5974    -0.0163     0.0389 </r>
       <r>    -1.5787    -0.0155     0.0386 </r>
       <r>    -1.5600    -0.0134     0.0383 </r>
       <r>    -1.5414    -0.0106     0.0381 </r>
       <r>    -1.5227    -0.0078     0.0380 </r>
       <r>    -1.5040    -0.0053     0.0379 </r>
       <r>    -1.4854    -0.0034     0.0378 </r>
       <r>    -1.4667    -0.0022     0.0378 </r>
       <r>    -1.4481    -0.0019     0.0378 </r>
       <r>    -1.4294    -0.0023     0.0377 </r>
       <r>    -1.4107    -0.0033     0.0377 </r>
       <r>    -1.3921    -0.0046     0.0376 </r>
       <r>    -1.3734    -0.0059     0.0375 </r>
       <r>    -1.3548    -0.0070     0.0373 </r>
       <r>    -1.3361    -0.0074     0.0372 </r>
       <r>    -1.3174    -0.0066     0.0371 </r>
       <r>    -1.2988    -0.0043     0.0370 </r>
       <r>    -1.2801    -0.0002     0.0370 </r>
       <r>    -1.2614     0.0061     0.0371 </r>
       <r>    -1.2428     0.0144     0.0374 </r>
       <r>    -1.2241     0.0246     0.0378 </r>
       <r>    -1.2055     0.0363     0.0385 </r>
       <r>    -1.1868     0.0488     0.0394 </r>
       <r>    -1.1681     0.0612     0.0406 </r>
       <r>    -1.1495     0.0727     0.0419 </r>
       <r>    -1.1308     0.0821     0.0435 </r>
       <r>    -1.1122     0.0888     0.0451 </r>
       <r>    -1.0935     0.0921     0.0468 </r>
       <r>    -1.0748     0.0918     0.0485 </r>
       <r>    -1.0562     0.0878     0.0502 </r>
       <r>    -1.0375     0.0806     0.0517 </r>
       <r>    -1.0188     0.0708     0.0530 </r>
       <r>    -1.0002     0.0593     0.0541 </r>
       <r>    -0.9815     0.0470     0.0550 </r>
       <r>    -0.9629     0.0349     0.0556 </r>
       <r>    -0.9442     0.0237     0.0561 </r>
       <r>    -0.9255     0.0142     0.0563 </r>
       <r>    -0.9069     0.0065     0.0565 </r>
       <r>    -0.8882     0.0009     0.0565 </r>
       <r>    -0.8696    -0.0029     0.0564 </r>
       <r>    -0.8509    -0.0053     0.0563 </r>
       <r>    -0.8322    -0.0068     0.0562 </r>
       <r>    -0.8136    -0.0080     0.0561 </r>
       <r>    -0.7949    -0.0094     0.0559 </r>
       <r>    -0.7762    -0.0115     0.0557 </r>
       <r>    -0.7576    -0.0146     0.0554 </r>
       <r>    -0.7389    -0.0187     0.0550 </r>
       <r>    -0.7203    -0.0234     0.0546 </r>
       <r>    -0.7016    -0.0282     0.0541 </r>
       <r>    -0.6829    -0.0318     0.0535 </r>
       <r>    -0.6643    -0.0332     0.0529 </r>
       <r>    -0.6456    -0.0305     0.0523 </r>
       <r>    -0.6270    -0.0224     0.0519 </r>
       <r>    -0.6083    -0.0072     0.0517 </r>
       <r>    -0.5896     0.0158     0.0520 </r>
       <r>    -0.5710     0.0473     0.0529 </r>
       <r>    -0.5523     0.0865     0.0545 </r>
       <r>    -0.5336     0.1321     0.0570 </r>
       <r>    -0.5150     0.1816     0.0604 </r>
       <r>    -0.4963     0.2319     0.0647 </r>
       <r>    -0.4777     0.2792     0.0699 </r>
       <r>    -0.4590     0.3198     0.0759 </r>
       <r>    -0.4403     0.3501     0.0824 </r>
       <r>    -0.4217     0.3673     0.0893 </r>
       <r>    -0.4030     0.3700     0.0962 </r>
       <r>    -0.3844     0.3577     0.1029 </r>
       <r>    -0.3657     0.3315     0.1090 </r>
       <r>    -0.3470     0.2937     0.1145 </r>
       <r>    -0.3284     0.2473     0.1191 </r>
       <r>    -0.3097     0.1961     0.1228 </r>
       <r>    -0.2911     0.1438     0.1255 </r>
       <r>    -0.2724     0.0938     0.1272 </r>
       <r>    -0.2537     0.0492     0.1282 </r>
       <r>    -0.2351     0.0121     0.1284 </r>
       <r>    -0.2164    -0.0163     0.1281 </r>
       <r>    -0.1977    -0.0354     0.1274 </r>
       <r>    -0.1791    -0.0451     0.1266 </r>
       <r>    -0.1604    -0.0460     0.1257 </r>
       <r>    -0.1418    -0.0388     0.1250 </r>
       <r>    -0.1231    -0.0246     0.1245 </r>
       <r>    -0.1044    -0.0044     0.1245 </r>
       <r>    -0.0858     0.0203     0.1248 </r>
       <r>    -0.0671     0.0481     0.1257 </r>
       <r>    -0.0485     0.0775     0.1272 </r>
       <r>    -0.0298     0.1066     0.1292 </r>
       <r>    -0.0111     0.1336     0.1317 </r>
       <r>     0.0075     0.1566     0.1346 </r>
       <r>     0.0262     0.1741     0.1378 </r>
       <r>     0.0449     0.1848     0.1413 </r>
       <r>     0.0635     0.1881     0.1448 </r>
       <r>     0.0822     0.1836     0.1482 </r>
       <r>     0.1008     0.1722     0.1514 </r>
       <r>     0.1195     0.1547     0.1543 </r>
       <r>     0.1382     0.1329     0.1568 </r>
       <r>     0.1568     0.1084     0.1588 </r>
       <r>     0.1755     0.0831     0.1604 </r>
       <r>     0.1941     0.0587     0.1615 </r>
       <r>     0.2128     0.0363     0.1621 </r>
       <r>     0.2315     0.0169     0.1625 </r>
       <r>     0.2501     0.0007     0.1625 </r>
       <r>     0.2688    -0.0123     0.1622 </r>
       <r>     0.2875    -0.0225     0.1618 </r>
       <r>     0.3061    -0.0304     0.1613 </r>
       <r>     0.3248    -0.0363     0.1606 </r>
       <r>     0.3434    -0.0403     0.1598 </r>
       <r>     0.3621    -0.0424     0.1590 </r>
       <r>     0.3808    -0.0418     0.1583 </r>
       <r>     0.3994    -0.0377     0.1575 </r>
       <r>     0.4181    -0.0289     0.1570 </r>
       <r>     0.4367    -0.0141     0.1567 </r>
       <r>     0.4554     0.0075     0.1569 </r>
       <r>     0.4741     0.0365     0.1576 </r>
       <r>     0.4927     0.0726     0.1589 </r>
       <r>     0.5114     0.1149     0.1611 </r>
       <r>     0.5301     0.1614     0.1641 </r>
       <r>     0.5487     0.2097     0.1680 </r>
       <r>     0.5674     0.2569     0.1728 </r>
       <r>     0.5860     0.2998     0.1784 </r>
       <r>     0.6047     0.3357     0.1846 </r>
       <r>     0.6234     0.3624     0.1914 </r>
       <r>     0.6420     0.3785     0.1985 </r>
       <r>     0.6607     0.3836     0.2056 </r>
       <r>     0.6793     0.3782     0.2127 </r>
       <r>     0.6980     0.3634     0.2195 </r>
       <r>     0.7167     0.3409     0.2258 </r>
       <r>     0.7353     0.3122     0.2317 </r>
       <r>     0.7540     0.2791     0.2369 </r>
       <r>     0.7727     0.2429     0.2414 </r>
       <r>     0.7913     0.2045     0.2452 </r>
       <r>     0.8100     0.1651     0.2483 </r>
       <r>     0.8286     0.1259     0.2506 </r>
       <r>     0.8473     0.0884     0.2523 </r>
       <r>     0.8660     0.0551     0.2533 </r>
       <r>     0.8846     0.0292     0.2539 </r>
       <r>     0.9033     0.0146     0.2541 </r>
       <r>     0.9219     0.0155     0.2544 </r>
       <r>     0.9406     0.0361     0.2551 </r>
       <r>     0.9593     0.0799     0.2566 </r>
       <r>     0.9779     0.1489     0.2594 </r>
       <r>     0.9966     0.2433     0.2639 </r>
       <r>     1.0153     0.3611     0.2707 </r>
       <r>     1.0339     0.4977     0.2799 </r>
       <r>     1.0526     0.6466     0.2920 </r>
       <r>     1.0712     0.7999     0.3069 </r>
       <r>     1.0899     0.9483     0.3246 </r>
       <r>     1.1086     1.0830     0.3448 </r>
       <r>     1.1272     1.1954     0.3672 </r>
       <r>     1.1459     1.2791     0.3910 </r>
       <r>     1.1645     1.3292     0.4158 </r>
       <r>     1.1832     1.3436     0.4409 </r>
       <r>     1.2019     1.3228     0.4656 </r>
       <r>     1.2205     1.2697     0.4893 </r>
       <r>     1.2392     1.1893     0.5115 </r>
       <r>     1.2579     1.0883     0.5318 </r>
       <r>     1.2765     0.9745     0.5500 </r>
       <r>     1.2952     0.8561     0.5659 </r>
       <r>     1.3138     0.7409     0.5798 </r>
       <r>     1.3325     0.6359     0.5916 </r>
       <r>     1.3512     0.5464     0.6018 </r>
       <r>     1.3698     0.4760     0.6107 </r>
       <r>     1.3885     0.4261     0.6187 </r>
       <r>     1.4071     0.3960     0.6261 </r>
       <r>     1.4258     0.3834     0.6332 </r>
       <r>     1.4445     0.3843     0.6404 </r>
       <r>     1.4631     0.3944     0.6477 </r>
       <r>     1.4818     0.4096     0.6554 </r>
       <r>     1.5004     0.4264     0.6633 </r>
       <r>     1.5191     0.4427     0.6716 </r>
       <r>     1.5378     0.4583     0.6802 </r>
       <r>     1.5564     0.4747     0.6890 </r>
       <r>     1.5751     0.4948     0.6983 </r>
       <r>     1.5938     0.5227     0.7080 </r>
       <r>     1.6124     0.5622     0.7185 </r>
       <r>     1.6311     0.6167     0.7300 </r>
       <r>     1.6497     0.6882     0.7429 </r>
       <r>     1.6684     0.7762     0.7573 </r>
       <r>     1.6871     0.8783     0.7737 </r>
       <r>     1.7057     0.9892     0.7922 </r>
       <r>     1.7244     1.1018     0.8127 </r>
       <r>     1.7430     1.2077     0.8353 </r>
       <r>     1.7617     1.2981     0.8595 </r>
       <r>     1.7804     1.3646     0.8850 </r>
       <r>     1.7990     1.4007     0.9111 </r>
       <r>     1.8177     1.4019     0.9373 </r>
       <r>     1.8364     1.3667     0.9628 </r>
       <r>     1.8550     1.2964     0.9870 </r>
       <r>     1.8737     1.1950     1.0093 </r>
       <r>     1.8923     1.0687     1.0292 </r>
       <r>     1.9110     0.9252     1.0465 </r>
       <r>     1.9297     0.7728     1.0609 </r>
       <r>     1.9483     0.6195     1.0725 </r>
       <r>     1.9670     0.4726     1.0813 </r>
       <r>     1.9856     0.3382     1.0876 </r>
       <r>     2.0043     0.2207     1.0917 </r>
       <r>     2.0230     0.1231     1.0940 </r>
       <r>     2.0416     0.0471     1.0949 </r>
       <r>     2.0603    -0.0065     1.0948 </r>
       <r>     2.0790    -0.0374     1.0941 </r>
       <r>     2.0976    -0.0454     1.0932 </r>
       <r>     2.1163    -0.0302     1.0927 </r>
       <r>     2.1349     0.0086     1.0928 </r>
       <r>     2.1536     0.0718     1.0942 </r>
       <r>     2.1723     0.1598     1.0971 </r>
       <r>     2.1909     0.2725     1.1022 </r>
       <r>     2.2096     0.4090     1.1099 </r>
       <r>     2.2282     0.5669     1.1204 </r>
       <r>     2.2469     0.7422     1.1343 </r>
       <r>     2.2656     0.9297     1.1516 </r>
       <r>     2.2842     1.1224     1.1726 </r>
       <r>     2.3029     1.3127     1.1971 </r>
       <r>     2.3216     1.4924     1.2249 </r>
       <r>     2.3402     1.6536     1.2558 </r>
       <r>     2.3589     1.7894     1.2892 </r>
       <r>     2.3775     1.8943     1.3245 </r>
       <r>     2.3962     1.9648     1.3612 </r>
       <r>     2.4149     1.9991     1.3985 </r>
       <r>     2.4335     1.9976     1.4358 </r>
       <r>     2.4522     1.9624     1.4724 </r>
       <r>     2.4708     1.8969     1.5078 </r>
       <r>     2.4895     1.8054     1.5415 </r>
       <r>     2.5082     1.6928     1.5731 </r>
       <r>     2.5268     1.5639     1.6023 </r>
       <r>     2.5455     1.4236     1.6288 </r>
       <r>     2.5642     1.2763     1.6527 </r>
       <r>     2.5828     1.1259     1.6737 </r>
       <r>     2.6015     0.9761     1.6919 </r>
       <r>     2.6201     0.8301     1.7074 </r>
       <r>     2.6388     0.6912     1.7203 </r>
       <r>     2.6575     0.5626     1.7308 </r>
       <r>     2.6761     0.4478     1.7391 </r>
       <r>     2.6948     0.3510     1.7457 </r>
       <r>     2.7134     0.2765     1.7508 </r>
       <r>     2.7321     0.2290     1.7551 </r>
       <r>     2.7508     0.2133     1.7591 </r>
       <r>     2.7694     0.2334     1.7635 </r>
       <r>     2.7881     0.2923     1.7689 </r>
       <r>     2.8068     0.3907     1.7762 </r>
       <r>     2.8254     0.5269     1.7860 </r>
       <r>     2.8441     0.6959     1.7990 </r>
       <r>     2.8627     0.8896     1.8156 </r>
       <r>     2.8814     1.0970     1.8361 </r>
       <r>     2.9001     1.3051     1.8604 </r>
       <r>     2.9187     1.5002     1.8884 </r>
       <r>     2.9374     1.6694     1.9196 </r>
       <r>     2.9560     1.8025     1.9532 </r>
       <r>     2.9747     1.8927     1.9886 </r>
       <r>     2.9934     1.9382     2.0247 </r>
       <r>     3.0120     1.9421     2.0610 </r>
       <r>     3.0307     1.9119     2.0966 </r>
       <r>     3.0493     1.8586     2.1313 </r>
       <r>     3.0680     1.7950     2.1648 </r>
       <r>     3.0867     1.7338     2.1972 </r>
       <r>     3.1053     1.6859     2.2286 </r>
       <r>     3.1240     1.6590     2.2596 </r>
       <r>     3.1427     1.6566     2.2905 </r>
       <r>     3.1613     1.6777     2.3218 </r>
       <r>     3.1800     1.7176     2.3539 </r>
       <r>     3.1986     1.7680     2.3869 </r>
       <r>     3.2173     1.8191     2.4208 </r>
       <r>     3.2360     1.8606     2.4555 </r>
       <r>     3.2546     1.8829     2.4907 </r>
       <r>     3.2733     1.8785     2.5257 </r>
       <r>     3.2919     1.8425     2.5601 </r>
       <r>     3.3106     1.7730     2.5932 </r>
       <r>     3.3293     1.6710     2.6244 </r>
       <r>     3.3479     1.5404     2.6531 </r>
       <r>     3.3666     1.3868     2.6790 </r>
       <r>     3.3853     1.2173     2.7017 </r>
       <r>     3.4039     1.0395     2.7211 </r>
       <r>     3.4226     0.8610     2.7372 </r>
       <r>     3.4412     0.6885     2.7500 </r>
       <r>     3.4599     0.5278     2.7599 </r>
       <r>     3.4786     0.3832     2.7670 </r>
       <r>     3.4972     0.2573     2.7718 </r>
       <r>     3.5159     0.1518     2.7747 </r>
       <r>     3.5345     0.0666     2.7759 </r>
       <r>     3.5532     0.0010     2.7759 </r>
       <r>     3.5719    -0.0464     2.7751 </r>
       <r>     3.5905    -0.0772     2.7736 </r>
       <r>     3.6092    -0.0931     2.7719 </r>
       <r>     3.6279    -0.0958     2.7701 </r>
       <r>     3.6465    -0.0866     2.7685 </r>
       <r>     3.6652    -0.0663     2.7672 </r>
       <r>     3.6838    -0.0359     2.7666 </r>
       <r>     3.7025     0.0040     2.7667 </r>
       <r>     3.7212     0.0523     2.7676 </r>
       <r>     3.7398     0.1079     2.7696 </r>
       <r>     3.7585     0.1693     2.7728 </r>
       <r>     3.7771     0.2344     2.7772 </r>
       <r>     3.7958     0.3010     2.7828 </r>
       <r>     3.8145     0.3665     2.7896 </r>
       <r>     3.8331     0.4284     2.7976 </r>
       <r>     3.8518     0.4848     2.8067 </r>
       <r>     3.8705     0.5340     2.8166 </r>
       <r>     3.8891     0.5756     2.8274 </r>
       <r>     3.9078     0.6095     2.8388 </r>
       <r>     3.9264     0.6368     2.8506 </r>
       <r>     3.9451     0.6589     2.8629 </r>
       <r>     3.9638     0.6776     2.8756 </r>
       <r>     3.9824     0.6945     2.8885 </r>
       <r>     4.0011     0.7107     2.9018 </r>
       <r>     4.0197     0.7266     2.9154 </r>
       <r>     4.0384     0.7417     2.9292 </r>
       <r>     4.0571     0.7552     2.9433 </r>
       <r>     4.0757     0.7655     2.9576 </r>
       <r>     4.0944     0.7716     2.9720 </r>
       <r>     4.1131     0.7728     2.9864 </r>
       <r>     4.1317     0.7694     3.0008 </r>
       <r>     4.1504     0.7628     3.0150 </r>
       <r>     4.1690     0.7556     3.0291 </r>
       <r>     4.1877     0.7508     3.0431 </r>
       <r>     4.2064     0.7519     3.0571 </r>
       <r>     4.2250     0.7620     3.0714 </r>
       <r>     4.2437     0.7830     3.0860 </r>
       <r>     4.2623     0.8157     3.1012 </r>
       <r>     4.2810     0.8596     3.1172 </r>
       <r>     4.2997     0.9124     3.1343 </r>
       <r>     4.3183     0.9715     3.1524 </r>
       <r>     4.3370     1.0337     3.1717 </r>
       <r>     4.3557     1.0961     3.1921 </r>
       <r>     4.3743     1.1568     3.2137 </r>
       <r>     4.3930     1.2149     3.2364 </r>
       <r>     4.4116     1.2709     3.2601 </r>
       <r>     4.4303     1.3262     3.2849 </r>
       <r>     4.4490     1.3829     3.3107 </r>
       <r>     4.4676     1.4435     3.3376 </r>
       <r>     4.4863     1.5103     3.3658 </r>
       <r>     4.5049     1.5854     3.3954 </r>
       <r>     4.5236     1.6700     3.4265 </r>
       <r>     4.5423     1.7650     3.4595 </r>
       <r>     4.5609     1.8703     3.4944 </r>
       <r>     4.5796     1.9856     3.5314 </r>
       <r>     4.5983     2.1095     3.5708 </r>
       <r>     4.6169     2.2404     3.6126 </r>
       <r>     4.6356     2.3757     3.6569 </r>
       <r>     4.6542     2.5119     3.7038 </r>
       <r>     4.6729     2.6450     3.7532 </r>
       <r>     4.6916     2.7700     3.8049 </r>
       <r>     4.7102     2.8814     3.8586 </r>
       <r>     4.7289     2.9737     3.9141 </r>
       <r>     4.7475     3.0415     3.9709 </r>
       <r>     4.7662     3.0804     4.0284 </r>
       <r>     4.7849     3.0869     4.0860 </r>
       <r>     4.8035     3.0593     4.1431 </r>
       <r>     4.8222     2.9974     4.1990 </r>
       <r>     4.8408     2.9027     4.2532 </r>
       <r>     4.8595     2.7783     4.3050 </r>
       <r>     4.8782     2.6279     4.3541 </r>
       <r>     4.8968     2.4564     4.3999 </r>
       <r>     4.9155     2.2685     4.4422 </r>
       <r>     4.9342     2.0689     4.4809 </r>
       <r>     4.9528     1.8621     4.5156 </r>
       <r>     4.9715     1.6519     4.5464 </r>
       <r>     4.9901     1.4422     4.5733 </r>
       <r>     5.0088     1.2365     4.5964 </r>
       <r>     5.0275     1.0388     4.6158 </r>
       <r>     5.0461     0.8531     4.6317 </r>
       <r>     5.0648     0.6843     4.6445 </r>
       <r>     5.0834     0.5371     4.6545 </r>
       <r>     5.1021     0.4164     4.6623 </r>
       <r>     5.1208     0.3264     4.6684 </r>
       <r>     5.1394     0.2702     4.6734 </r>
       <r>     5.1581     0.2491     4.6781 </r>
       <r>     5.1768     0.2624     4.6830 </r>
       <r>     5.1954     0.3070     4.6887 </r>
       <r>     5.2141     0.3779     4.6957 </r>
       <r>     5.2327     0.4680     4.7045 </r>
       <r>     5.2514     0.5697     4.7151 </r>
       <r>     5.2701     0.6748     4.7277 </r>
       <r>     5.2887     0.7759     4.7422 </r>
       <r>     5.3074     0.8670     4.7584 </r>
       <r>     5.3260     0.9437     4.7760 </r>
       <r>     5.3447     1.0037     4.7947 </r>
       <r>     5.3634     1.0466     4.8142 </r>
       <r>     5.3820     1.0733     4.8343 </r>
       <r>     5.4007     1.0860     4.8545 </r>
       <r>     5.4194     1.0871     4.8748 </r>
       <r>     5.4380     1.0791     4.8950 </r>
       <r>     5.4567     1.0641     4.9148 </r>
       <r>     5.4753     1.0437     4.9343 </r>
       <r>     5.4940     1.0187     4.9533 </r>
       <r>     5.5127     0.9899     4.9718 </r>
       <r>     5.5313     0.9575     4.9896 </r>
       <r>     5.5500     0.9221     5.0069 </r>
       <r>     5.5686     0.8844     5.0234 </r>
       <r>     5.5873     0.8454     5.0391 </r>
       <r>     5.6060     0.8065     5.0542 </r>
       <r>     5.6246     0.7693     5.0685 </r>
       <r>     5.6433     0.7355     5.0823 </r>
       <r>     5.6620     0.7065     5.0955 </r>
       <r>     5.6806     0.6835     5.1082 </r>
       <r>     5.6993     0.6667     5.1206 </r>
       <r>     5.7179     0.6559     5.1329 </r>
       <r>     5.7366     0.6501     5.1450 </r>
       <r>     5.7553     0.6473     5.1571 </r>
       <r>     5.7739     0.6453     5.1691 </r>
       <r>     5.7926     0.6411     5.1811 </r>
       <r>     5.8112     0.6320     5.1929 </r>
       <r>     5.8299     0.6155     5.2044 </r>
       <r>     5.8486     0.5897     5.2154 </r>
       <r>     5.8672     0.5537     5.2257 </r>
       <r>     5.8859     0.5075     5.2352 </r>
       <r>     5.9046     0.4524     5.2436 </r>
       <r>     5.9232     0.3904     5.2509 </r>
       <r>     5.9419     0.3244     5.2570 </r>
       <r>     5.9605     0.2576     5.2618 </r>
       <r>     5.9792     0.1934     5.2654 </r>
       <r>     5.9979     0.1345     5.2679 </r>
       <r>     6.0165     0.0830     5.2694 </r>
       <r>     6.0352     0.0401     5.2702 </r>
       <r>     6.0538     0.0060     5.2703 </r>
       <r>     6.0725    -0.0198     5.2699 </r>
       <r>     6.0912    -0.0389     5.2692 </r>
       <r>     6.1098    -0.0529     5.2682 </r>
       <r>     6.1285    -0.0637     5.2670 </r>
       <r>     6.1472    -0.0725     5.2657 </r>
       <r>     6.1658    -0.0800     5.2642 </r>
       <r>     6.1845    -0.0861     5.2626 </r>
       <r>     6.2031    -0.0892     5.2609 </r>
       <r>     6.2218    -0.0873     5.2593 </r>
       <r>     6.2405    -0.0770     5.2579 </r>
       <r>     6.2591    -0.0551     5.2568 </r>
       <r>     6.2778    -0.0182     5.2565 </r>
       <r>     6.2964     0.0362     5.2572 </r>
       <r>     6.3151     0.1090     5.2592 </r>
       <r>     6.3338     0.1994     5.2629 </r>
       <r>     6.3524     0.3043     5.2686 </r>
       <r>     6.3711     0.4183     5.2764 </r>
       <r>     6.3897     0.5343     5.2864 </r>
       <r>     6.4084     0.6438     5.2984 </r>
       <r>     6.4271     0.7379     5.3122 </r>
       <r>     6.4457     0.8085     5.3272 </r>
       <r>     6.4644     0.8493     5.3431 </r>
       <r>     6.4831     0.8563     5.3591 </r>
       <r>     6.5017     0.8289     5.3745 </r>
       <r>     6.5204     0.7695     5.3889 </r>
       <r>     6.5390     0.6834     5.4017 </r>
       <r>     6.5577     0.5783     5.4124 </r>
       <r>     6.5764     0.4629     5.4211 </r>
       <r>     6.5950     0.3465     5.4276 </r>
       <r>     6.6137     0.2373     5.4320 </r>
       <r>     6.6323     0.1422     5.4346 </r>
       <r>     6.6510     0.0658     5.4359 </r>
       <r>     6.6697     0.0104     5.4361 </r>
       <r>     6.6883    -0.0239     5.4356 </r>
       <r>     6.7070    -0.0389     5.4349 </r>
       <r>     6.7257    -0.0380     5.4342 </r>
       <r>     6.7443    -0.0254     5.4337 </r>
       <r>     6.7630    -0.0054     5.4336 </r>
       <r>     6.7816     0.0178     5.4339 </r>
       <r>     6.8003     0.0404     5.4347 </r>
       <r>     6.8190     0.0598     5.4358 </r>
       <r>     6.8376     0.0741     5.4372 </r>
       <r>     6.8563     0.0824     5.4387 </r>
       <r>     6.8749     0.0846     5.4403 </r>
       <r>     6.8936     0.0814     5.4418 </r>
       <r>     6.9123     0.0739     5.4432 </r>
       <r>     6.9309     0.0633     5.4444 </r>
       <r>     6.9496     0.0512     5.4453 </r>
       <r>     6.9683     0.0389     5.4461 </r>
       <r>     6.9869     0.0273     5.4466 </r>
       <r>     7.0056     0.0174     5.4469 </r>
       <r>     7.0242     0.0096     5.4471 </r>
       <r>     7.0429     0.0040     5.4471 </r>
       <r>     7.0616     0.0003     5.4472 </r>
       <r>     7.0802    -0.0018     5.4471 </r>
       <r>     7.0989    -0.0030     5.4471 </r>
       <r>     7.1175    -0.0040     5.4470 </r>
       <r>     7.1362    -0.0057     5.4469 </r>
       <r>     7.1549    -0.0086     5.4467 </r>
       <r>     7.1735    -0.0134     5.4465 </r>
       <r>     7.1922    -0.0203     5.4461 </r>
       <r>     7.2109    -0.0291     5.4456 </r>
       <r>     7.2295    -0.0393     5.4448 </r>
       <r>     7.2482    -0.0497     5.4439 </r>
       <r>     7.2668    -0.0583     5.4428 </r>
       <r>     7.2855    -0.0629     5.4416 </r>
       <r>     7.3042    -0.0605     5.4405 </r>
       <r>     7.3228    -0.0482     5.4396 </r>
       <r>     7.3415    -0.0233     5.4392 </r>
       <r>     7.3601     0.0166     5.4395 </r>
       <r>     7.3788     0.0723     5.4408 </r>
       <r>     7.3975     0.1435     5.4435 </r>
       <r>     7.4161     0.2281     5.4478 </r>
       <r>     7.4348     0.3219     5.4538 </r>
       <r>     7.4535     0.4195     5.4616 </r>
       <r>     7.4721     0.5141     5.4712 </r>
       <r>     7.4908     0.5983     5.4824 </r>
       <r>     7.5094     0.6653     5.4948 </r>
       <r>     7.5281     0.7092     5.5080 </r>
       <r>     7.5468     0.7261     5.5215 </r>
       <r>     7.5654     0.7144     5.5349 </r>
       <r>     7.5841     0.6753     5.5475 </r>
       <r>     7.6027     0.6123     5.5589 </r>
       <r>     7.6214     0.5307     5.5688 </r>
       <r>     7.6401     0.4375     5.5770 </r>
       <r>     7.6587     0.3399     5.5833 </r>
       <r>     7.6774     0.2448     5.5879 </r>
       <r>     7.6961     0.1581     5.5908 </r>
       <r>     7.7147     0.0841     5.5924 </r>
       <r>     7.7334     0.0253     5.5929 </r>
       <r>     7.7520    -0.0175     5.5926 </r>
       <r>     7.7707    -0.0451     5.5917 </r>
       <r>     7.7894    -0.0595     5.5906 </r>
       <r>     7.8080    -0.0634     5.5894 </r>
       <r>     7.8267    -0.0597     5.5883 </r>
       <r>     7.8453    -0.0511     5.5874 </r>
       <r>     7.8640    -0.0401     5.5866 </r>
       <r>     7.8827    -0.0287     5.5861 </r>
       <r>     7.9013    -0.0181     5.5857 </r>
       <r>     7.9200    -0.0092     5.5856 </r>
       <r>     7.9387    -0.0023     5.5855 </r>
       <r>     7.9573     0.0026     5.5856 </r>
       <r>     7.9760     0.0056     5.5857 </r>
       <r>     7.9946     0.0069     5.5858 </r>
       <r>     8.0133     0.0067     5.5859 </r>
       <r>     8.0320     0.0051     5.5860 </r>
       <r>     8.0506     0.0022     5.5861 </r>
       <r>     8.0693    -0.0019     5.5860 </r>
       <r>     8.0879    -0.0071     5.5859 </r>
       <r>     8.1066    -0.0131     5.5856 </r>
       <r>     8.1253    -0.0195     5.5853 </r>
       <r>     8.1439    -0.0257     5.5848 </r>
       <r>     8.1626    -0.0306     5.5842 </r>
       <r>     8.1812    -0.0330     5.5836 </r>
       <r>     8.1999    -0.0314     5.5830 </r>
       <r>     8.2186    -0.0242     5.5826 </r>
       <r>     8.2372    -0.0101     5.5824 </r>
       <r>     8.2559     0.0119     5.5826 </r>
       <r>     8.2746     0.0423     5.5834 </r>
       <r>     8.2932     0.0806     5.5849 </r>
       <r>     8.3119     0.1255     5.5872 </r>
       <r>     8.3305     0.1747     5.5905 </r>
       <r>     8.3492     0.2250     5.5947 </r>
       <r>     8.3679     0.2728     5.5998 </r>
       <r>     8.3865     0.3142     5.6057 </r>
       <r>     8.4052     0.3458     5.6121 </r>
       <r>     8.4238     0.3647     5.6189 </r>
       <r>     8.4425     0.3692     5.6258 </r>
       <r>     8.4612     0.3588     5.6325 </r>
       <r>     8.4798     0.3346     5.6388 </r>
       <r>     8.4985     0.2987     5.6443 </r>
       <r>     8.5172     0.2542     5.6491 </r>
       <r>     8.5358     0.2050     5.6529 </r>
       <r>     8.5545     0.1547     5.6558 </r>
       <r>     8.5731     0.1070     5.6578 </r>
       <r>     8.5918     0.0646     5.6590 </r>
       <r>     8.6105     0.0294     5.6595 </r>
       <r>     8.6291     0.0024     5.6596 </r>
       <r>     8.6478    -0.0162     5.6593 </r>
       <r>     8.6664    -0.0272     5.6588 </r>
       <r>     8.6851    -0.0318     5.6582 </r>
       <r>     8.7038    -0.0315     5.6576 </r>
       <r>     8.7224    -0.0278     5.6571 </r>
       <r>     8.7411    -0.0223     5.6567 </r>
       <r>     8.7598    -0.0162     5.6564 </r>
       <r>     8.7784    -0.0104     5.6562 </r>
       <r>     8.7971    -0.0058     5.6560 </r>
       <r>     8.8157    -0.0028     5.6560 </r>
       <r>     8.8344    -0.0017     5.6560 </r>
       <r>     8.8531    -0.0025     5.6559 </r>
       <r>     8.8717    -0.0052     5.6558 </r>
       <r>     8.8904    -0.0096     5.6556 </r>
       <r>     8.9090    -0.0152     5.6554 </r>
       <r>     8.9277    -0.0213     5.6550 </r>
       <r>     8.9464    -0.0270     5.6545 </r>
       <r>     8.9650    -0.0311     5.6539 </r>
       <r>     8.9837    -0.0320     5.6533 </r>
       <r>     9.0024    -0.0283     5.6527 </r>
       <r>     9.0210    -0.0184     5.6524 </r>
       <r>     9.0397    -0.0010     5.6524 </r>
       <r>     9.0583     0.0246     5.6528 </r>
       <r>     9.0770     0.0585     5.6539 </r>
       <r>     9.0957     0.0999     5.6558 </r>
       <r>     9.1143     0.1470     5.6585 </r>
       <r>     9.1330     0.1971     5.6622 </r>
       <r>     9.1516     0.2468     5.6668 </r>
       <r>     9.1703     0.2923     5.6723 </r>
       <r>     9.1890     0.3298     5.6784 </r>
       <r>     9.2076     0.3562     5.6851 </r>
       <r>     9.2263     0.3690     5.6920 </r>
       <r>     9.2450     0.3671     5.6988 </r>
       <r>     9.2636     0.3507     5.7054 </r>
       <r>     9.2823     0.3213     5.7114 </r>
       <r>     9.3009     0.2816     5.7166 </r>
       <r>     9.3196     0.2349     5.7210 </r>
       <r>     9.3383     0.1851     5.7245 </r>
       <r>     9.3569     0.1357     5.7270 </r>
       <r>     9.3756     0.0898     5.7287 </r>
       <r>     9.3942     0.0497     5.7296 </r>
       <r>     9.4129     0.0168     5.7299 </r>
       <r>     9.4316    -0.0087     5.7297 </r>
       <r>     9.4502    -0.0271     5.7292 </r>
       <r>     9.4689    -0.0395     5.7285 </r>
       <r>     9.4876    -0.0471     5.7276 </r>
       <r>     9.5062    -0.0511     5.7267 </r>
       <r>     9.5249    -0.0524     5.7257 </r>
       <r>     9.5435    -0.0514     5.7247 </r>
       <r>     9.5622    -0.0479     5.7238 </r>
       <r>     9.5809    -0.0413     5.7231 </r>
       <r>     9.5995    -0.0304     5.7225 </r>
       <r>     9.6182    -0.0141     5.7222 </r>
       <r>     9.6368     0.0087     5.7224 </r>
       <r>     9.6555     0.0385     5.7231 </r>
       <r>     9.6742     0.0750     5.7245 </r>
       <r>     9.6928     0.1171     5.7267 </r>
       <r>     9.7115     0.1628     5.7297 </r>
       <r>     9.7301     0.2091     5.7336 </r>
       <r>     9.7488     0.2526     5.7384 </r>
       <r>     9.7675     0.2898     5.7438 </r>
       <r>     9.7861     0.3176     5.7497 </r>
       <r>     9.8048     0.3338     5.7559 </r>
       <r>     9.8235     0.3375     5.7622 </r>
       <r>     9.8421     0.3294     5.7684 </r>
       <r>     9.8608     0.3117     5.7742 </r>
       <r>     9.8794     0.2878     5.7796 </r>
       <r>     9.8981     0.2619     5.7844 </r>
       <r>     9.9168     0.2386     5.7889 </r>
       <r>     9.9354     0.2217     5.7930 </r>
       <r>     9.9541     0.2141     5.7970 </r>
       <r>     9.9727     0.2171     5.8011 </r>
       <r>     9.9914     0.2301     5.8054 </r>
       <r>    10.0101     0.2509     5.8101 </r>
       <r>    10.0287     0.2761     5.8152 </r>
       <r>    10.0474     0.3014     5.8208 </r>
       <r>    10.0661     0.3222     5.8268 </r>
       <r>    10.0847     0.3348     5.8331 </r>
       <r>    10.1034     0.3363     5.8394 </r>
       <r>    10.1220     0.3254     5.8454 </r>
       <r>    10.1407     0.3023     5.8511 </r>
       <r>    10.1594     0.2687     5.8561 </r>
       <r>    10.1780     0.2273     5.8603 </r>
       <r>    10.1967     0.1817     5.8637 </r>
       <r>    10.2153     0.1354     5.8663 </r>
       <r>    10.2340     0.0918     5.8680 </r>
       <r>    10.2527     0.0535     5.8690 </r>
       <r>    10.2713     0.0223     5.8694 </r>
[...]
       </set>
       <set comment="band 6">
        <r>  0.0042  0.0011  0.0001  0.0004  0.2631  0.4527  0.0155  0.1509  0.0877 </r>
       </set>
       <set comment="band 7">
        <r>  0.0000  0.0487  0.0000  0.1460  0.1263  0.0019  0.0000  0.0057  0.3789 </r>
       </set>
       <set comment="band 8">
        <r>  0.0813  0.1724  0.0152  0.0575  0.0418  0.0088  0.2957  0.0029  0.0139 </r>
       </set>
       <set comment="band 9">
        <r>  0.0712  0.1284  0.2927  0.0428  0.0539  0.1485  0.0098  0.0495  0.0180 </r>
       </set>
      </set>
      <set comment="kpoint 6">
       <set comment="band 1">
        <r>  0.3036  0.1136  0.0000  0.0514  0.1928  0.0013  0.1164  0.0001  0.0052 </r>
       </set>
       <set comment="band 2">
        <r>  0.0005  0.0059  0.0011  0.0194  0.2191  0.0381  0.3982  0.0036  0.2526 </r>
       </set>
       <set comment="band 3">
        <r>  0.0192  0.0400  0.0013  0.1255  0.0122  0.0158  0.3442  0.0001  0.3177 </r>
       </set>
       <set comment="band 4">
        <r>  0.0008  0.0000  0.0001  0.0026  0.0037  0.3446  0.0294  0.5861  0.0011 </r>
       </set>
       <set comment="band 5">
        <r>  0.0053  0.0000  0.0007  0.0006  0.0247  0.5560  0.0175  0.3696  0.0095 </r>
       </set>
       <set comment="band 6">
        <r>  0.0277  0.0495  0.0013  0.0310  0.4819  0.0180  0.0152  0.0118  0.3183 </r>
       </set>
       <set comment="band 7">
        <r>  0.1751  0.0075  0.0000  0.2261  0.1651  0.0000  0.1019  0.0002  0.1612 </r>
       </set>
       <set comment="band 8">
        <r>  0.0858  0.2598  0.0050  0.0282  0.0325  0.0000  0.1514  0.0010  0.1349 </r>
       </set>
       <set comment="band 9">
        <r>  0.0618  0.0958  0.3838  0.0010  0.0022  0.0335  0.0504  0.0274  0.0189 </r>
       </set>
      </set>
      <set comment="kpoint 7">
       <set comment="band 1">
        <r>  0.1387  0.0230  0.0003  0.0077  0.3542  0.0036  0.2154  0.0012  0.1181 </r>
       </set>
       <set comment="band 2">
        <r>  0.0004  0.0121  0.0023  0.0040  0.1986  0.0391  0.6099  0.0130  0.0662 </r>
       </set>
       <set comment="band 3">
        <r>  0.0000  0.0980  0.0000  0.2939  0.0998  0.0015  0.0000  0.0046  0.2993 </r>
       </set>
       <set comment="band 4">
        <r>  0.0088  0.0003  0.0000  0.0001  0.0052  0.6834  0.0473  0.2278  0.0017 </r>
       </set>
       <set comment="band 5">
        <r>  0.0000  0.0049  0.0000  0.0147  0.0008  0.2399  0.0000  0.7198  0.0025 </r>
       </set>
       <set comment="band 6">
        <r>  0.0000  0.0645  0.0000  0.1934  0.1542  0.0049  0.0000  0.0147  0.4627 </r>
       </set>
       <set comment="band 7">
        <r>  0.3721  0.0248  0.0002  0.0083  0.2753  0.0009  0.1371  0.0003  0.0918 </r>
       </set>
       <set comment="band 8">
        <r>  0.0900  0.2446  0.0022  0.0815  0.1029  0.0002  0.1296  0.0001  0.0343 </r>
       </set>
       <set comment="band 9">
        <r>  0.0538  0.0656  0.4139  0.0219  0.0018  0.0005  0.0643  0.0002  0.0006 </r>
       </set>
      </set>
      <set comment="kpoint 8">
       <set comment="band 1">
        <r>  0.1072  0.0592  0.0027  0.0197  0.1023  0.0050  0.5422  0.0017  0.0341 </r>
       </set>
       <set comment="band 2">
        <r>  0.0000  0.0319  0.0000  0.0958  0.1872  0.0001  0.0000  0.0003  0.5615 </r>
       </set>
       <set comment="band 3">
        <r>  0.0022  0.1353  0.0027  0.0451  0.2820  0.0003  0.3137  0.0001  0.0940 </r>
       </set>
       <set comment="band 4">
        <r>  0.0000  0.0011  0.0000  0.0032  0.0001  0.2423  0.0000  0.7269  0.0003 </r>
       </set>
       <set comment="band 5">
        <r>  0.0050  0.0042  0.0001  0.0014  0.0009  0.7252  0.0040  0.2417  0.0003 </r>
       </set>
       <set comment="band 6">
        <r>  0.0568  0.1929  0.0000  0.0643  0.4127  0.0045  0.0196  0.0015  0.1376 </r>
       </set>
       <set comment="band 7">
        <r>  0.0000  0.0937  0.0000  0.2810  0.1164  0.0000  0.0000  0.0001  0.3492 </r>
       </set>
       <set comment="band 8">
        <r>  0.4617  0.0765  0.0012  0.0255  0.0016  0.0002  0.2428  0.0001  0.0005 </r>
       </set>
       <set comment="band 9">
        <r>  0.0767  0.0078  0.4059  0.0026  0.0012  0.0051  0.2144  0.0017  0.0004 </r>
       </set>
      </set>
      <set comment="kpoint 9">
       <set comment="band 1">
        <r>  0.3774  0.1558  0.0260  0.0519  0.0623  0.0311  0.0156  0.0104  0.0208 </r>
       </set>
       <set comment="band 2">
        <r>  0.0000  0.0042  0.0052  0.0265  0.1409  0.0001  0.1195  0.1062  0.5304 </r>
       </set>
       <set comment="band 3">
        <r>  0.0000  0.0078  0.0267  0.0014  0.0660  0.1375  0.6173  0.0047  0.0715 </r>
       </set>
       <set comment="band 4">
        <r>  0.0000  0.0000  0.0000  0.0000  0.1907  0.1472  0.0641  0.4212  0.1534 </r>
       </set>
       <set comment="band 5">
        <r>  0.0000  0.0000  0.0000  0.0000  0.1254  0.4564  0.0118  0.3683  0.0147 </r>
       </set>
       <set comment="band 6">
        <r>  0.0261  0.0504  0.0084  0.0168  0.3807  0.1904  0.0952  0.0635  0.1269 </r>
       </set>
       <set comment="band 7">
        <r>  0.0000  0.0602  0.2081  0.0105  0.0156  0.0965  0.2734  0.0178  0.0566 </r>
       </set>
       <set comment="band 8">
        <r>  0.0000  0.0327  0.0397  0.2064  0.0970  0.0066  0.0521  0.0232  0.2809 </r>
       </set>
       <set comment="band 9">
        <r>  0.3568  0.2694  0.0449  0.0898  0.0318  0.0159  0.0079  0.0053  0.0106 </r>
       </set>
      </set>
      <set comment="kpoint 10">
       <set comment="band 1">
        <r>  0.1164  0.0948  0.0295  0.0023  0.3633  0.0142  0.1716  0.0000  0.0611 </r>
       </set>
       <set comment="band 2">
        <r>  0.0000  0.0121  0.0323  0.0040  0.1249  0.0955  0.5814  0.0076  0.0720 </r>
       </set>
       <set comment="band 3">
        <r>  0.0179  0.0523  0.0003  0.1985  0.0016  0.0370  0.0270  0.1222  0.3944 </r>
       </set>
       <set comment="band 4">
        <r>  0.0016  0.0001  0.0001  0.0001  0.0736  0.6054  0.0463  0.2467  0.0080 </r>
       </set>
       <set comment="band 5">
        <r>  0.0000  0.0000  0.0000  0.0000  0.1087  0.1377  0.0081  0.5126  0.2184 </r>
       </set>
       <set comment="band 6">
        <r>  0.0509  0.1002  0.0065  0.1031  0.2689  0.0890  0.0366  0.0958  0.1458 </r>
       </set>
       <set comment="band 7">
        <r>  0.2257  0.0001  0.0236  0.1762  0.1279  0.0000  0.1047  0.0194  0.1637 </r>
       </set>
       <set comment="band 8">
        <r>  0.0000  0.0775  0.2068  0.0258  0.0527  0.0519  0.2713  0.0010  0.0415 </r>
       </set>
       <set comment="band 9">
        <r>  0.3582  0.2192  0.1127  0.0192  0.0190  0.0049  0.0127  0.0022  0.0412 </r>
       </set>
      </set>
      <set comment="kpoint 11">
       <set comment="band 1">
        <r>  0.6033  0.0546  0.0364  0.0182  0.0032  0.0065  0.0000  0.0022  0.0011 </r>
       </set>
       <set comment="band 2">
        <r>  0.0000  0.0026  0.0002  0.0114  0.2013  0.1006  0.0115  0.2134  0.4269 </r>
       </set>
       <set comment="band 3">
        <r>  0.0000  0.0045  0.0092  0.0004  0.1166  0.0583  0.6243  0.0515  0.1030 </r>
       </set>
       <set comment="band 4">
        <r>  0.0000  0.0000  0.0000  0.0000  0.3258  0.1629  0.3258  0.0543  0.1086 </r>
       </set>
       <set comment="band 5">
        <r>  0.0000  0.0000  0.0000  0.0000  0.0774  0.1547  0.0000  0.4642  0.2321 </r>
       </set>
       <set comment="band 6">
        <r>  0.0082  0.0009  0.0006  0.0003  0.2423  0.4847  0.0000  0.1616  0.0808 </r>
       </set>
       <set comment="band 7">
        <r>  0.0000  0.0000  0.0000  0.0000  0.0402  0.0804  0.0000  0.2412  0.1206 </r>
       </set>
       <set comment="band 8">
        <r>  0.0000  0.0980  0.1259  0.0042  0.0271  0.0135  0.3156  0.0716  0.1434 </r>
       </set>
       <set comment="band 9">
        <r>  0.0000  0.0161  0.0259  0.1861  0.1634  0.0816  0.0652  0.0871  0.1740 </r>
       </set>
      </set>
      <set comment="kpoint 12">
       <set comment="band 1">
        <r>  0.0243  0.0000  0.0707  0.0000  0.0000  0.0000  0.8162  0.0000  0.0000 </r>
       </set>
       <set comment="band 2">
        <r>  0.0000  0.0877  0.0000  0.0996  0.2776  0.0449  0.0000  0.0510  0.3153 </r>
       </set>
       <set comment="band 3">
        <r>  0.0000  0.0996  0.0000  0.0877  0.3153  0.0510  0.0000  0.0449  0.2776 </r>
       </set>
       <set comment="band 4">
        <r>  0.0000  0.0000  0.0000  0.0004  0.0024  0.0148  0.0000  0.8328  0.1356 </r>
       </set>
       <set comment="band 5">
        <r>  0.0000  0.0004  0.0000  0.0000  0.1356  0.8328  0.0000  0.0148  0.0024 </r>
       </set>
       <set comment="band 6">
        <r>  0.0000  0.3295  0.0000  0.0308  0.3683  0.0605  0.0000  0.0057  0.0344 </r>
       </set>
       <set comment="band 7">
        <r>  0.0000  0.0308  0.0000  0.3295  0.0344  0.0057  0.0000  0.0605  0.3683 </r>
       </set>
       <set comment="band 8">
        <r>  0.5023  0.0000  0.0573  0.0000  0.0000  0.0000  0.2642  0.0000  0.0000 </r>
       </set>
       <set comment="band 9">
        <r>  0.2689  0.0000  0.3037  0.0000  0.0000  0.0000  0.2025  0.0000  0.0000 </r>
       </set>
      </set>
      <set comment="kpoint 13">
       <set comment="band 1">
        <r>  0.4171  0.0938  0.0323  0.0764  0.0755  0.0168  0.0149  0.0148  0.0004 </r>
       </set>
       <set comment="band 2">
        <r>  0.0039  0.0091  0.0011  0.0451  0.2929  0.0017  0.1443  0.0991  0.3042 </r>
       </set>
       <set comment="band 3">
        <r>  0.0000  0.0073  0.0049  0.0024  0.1047  0.0524  0.6114  0.0586  0.1172 </r>
       </set>
       <set comment="band 4">
        <r>  0.0002  0.0027  0.0002  0.0118  0.0203  0.3704  0.1458  0.3832  0.0115 </r>
       </set>
       <set comment="band 5">
        <r>  0.0000  0.0050  0.0034  0.0017  0.2202  0.1101  0.0224  0.2046  0.4092 </r>
       </set>
       <set comment="band 6">
        <r>  0.0424  0.0087  0.0020  0.0099  0.2285  0.4187  0.0002  0.1816  0.0838 </r>
       </set>
       <set comment="band 7">
        <r>  0.0846  0.0250  0.0188  0.2188  0.1950  0.0007  0.0942  0.0276  0.1469 </r>
       </set>
       <set comment="band 8">
        <r>  0.0000  0.2147  0.1430  0.0715  0.0036  0.0018  0.2079  0.0890  0.1782 </r>
       </set>
       <set comment="band 9">
        <r>  0.0795  0.0554  0.0396  0.0161  0.0048  0.0931  0.0095  0.1712  0.0432 </r>
       </set>
      </set>
      <set comment="kpoint 14">
       <set comment="band 1">
        <r>  0.1637  0.0388  0.0231  0.0159  0.3813  0.0319  0.1073  0.0006  0.0708 </r>
       </set>
       <set comment="band 2">
        <r>  0.0000  0.0074  0.0050  0.0025  0.1428  0.0714  0.6247  0.0333  0.0666 </r>
       </set>
       <set comment="band 3">
        <r>  0.0097  0.0629  0.0000  0.1851  0.0078  0.0204  0.0159  0.2815  0.2346 </r>
       </set>
       <set comment="band 4">
        <r>  0.0111  0.0019  0.0003  0.0094  0.0001  0.6204  0.1386  0.1730  0.0008 </r>
       </set>
       <set comment="band 5">
        <r>  0.0000  0.0016  0.0011  0.0005  0.1819  0.0909  0.0019  0.2372  0.4744 </r>
       </set>
       <set comment="band 6">
        <r>  0.0533  0.0758  0.0027  0.1629  0.1713  0.1260  0.0118  0.2404  0.0638 </r>
       </set>
       <set comment="band 7">
        <r>  0.2814  0.0043  0.0275  0.1216  0.2051  0.0035  0.1086  0.0091  0.1244 </r>
       </set>
       <set comment="band 8">
        <r>  0.0000  0.2823  0.1882  0.0941  0.0210  0.0105  0.1781  0.0280  0.0559 </r>
       </set>
       <set comment="band 9">
        <r>  0.0816  0.0411  0.0823  0.0030  0.0348  0.1265  0.0019  0.0837  0.0279 </r>
       </set>
      </set>
      <set comment="kpoint 15">
       <set comment="band 1">
        <r>  0.1901  0.1373  0.0216  0.0458  0.1508  0.0684  0.1018  0.0228  0.0503 </r>
       </set>
       <set comment="band 2">
        <r>  0.0000  0.0127  0.0000  0.0381  0.1774  0.0289  0.0000  0.0866  0.5323 </r>
       </set>
       <set comment="band 3">
        <r>  0.0003  0.0418  0.0017  0.0139  0.0480  0.0135  0.7949  0.0045  0.0160 </r>
       </set>
       <set comment="band 4">
        <r>  0.0000  0.0050  0.0000  0.0151  0.0303  0.2040  0.0000  0.6120  0.0908 </r>
       </set>
       <set comment="band 5">
        <r>  0.0130  0.0004  0.0035  0.0001  0.1381  0.5836  0.0002  0.1945  0.0460 </r>
       </set>
       <set comment="band 6">
        <r>  0.1022  0.1194  0.0025  0.0398  0.4202  0.0670  0.0136  0.0223  0.1401 </r>
       </set>
       <set comment="band 7">
        <r>  0.0000  0.0939  0.0000  0.2817  0.1166  0.0033  0.0000  0.0100  0.3498 </r>
       </set>
       <set comment="band 8">
        <r>  0.2591  0.1642  0.0610  0.0547  0.0025  0.0180  0.2332  0.0060  0.0008 </r>
       </set>
       <set comment="band 9">
        <r>  0.0000  0.0319  0.0000  0.0944  0.0022  0.1427  0.0000  0.4238  0.0060 </r>
       </set>
      </set>
      <set comment="kpoint 16">
       <set comment="band 1">
        <r>  0.0524  0.0478  0.0082  0.0159  0.3789  0.0791  0.1209  0.0264  0.1263 </r>
       </set>
       <set comment="band 2">
        <r>  0.0000  0.0468  0.0000  0.1404  0.1045  0.0561  0.0000  0.1684  0.3136 </r>
       </set>
       <set comment="band 3">
        <r>  0.0239  0.0146  0.0049  0.0049  0.1058  0.0036  0.7387  0.0012  0.0353 </r>
       </set>
       <set comment="band 4">
        <r>  0.0108  0.0116  0.0005  0.0039  0.0759  0.6229  0.0031  0.2076  0.0253 </r>
       </set>
       <set comment="band 5">
        <r>  0.0000  0.0054  0.0000  0.0162  0.0628  0.1772  0.0000  0.5315  0.1883 </r>
       </set>
       <set comment="band 6">
        <r>  0.0000  0.1074  0.0000  0.3223  0.0964  0.0121  0.0000  0.0363  0.2893 </r>
       </set>
       <set comment="band 7">
        <r>  0.2794  0.1067  0.0315  0.0356  0.2408  0.0019  0.1055  0.0006  0.0803 </r>
       </set>
       <set comment="band 8">
        <r>  0.1851  0.2160  0.0505  0.0720  0.0928  0.0087  0.1502  0.0029  0.0309 </r>
       </set>
       <set comment="band 9">
        <r>  0.0173  0.0557  0.1406  0.0186  0.0214  0.2720  0.0018  0.0907  0.0071 </r>
       </set>
      </set>
      <set comment="kpoint 17">
       <set comment="band 1">
        <r>  0.2146  0.1191  0.0794  0.0397  0.0781  0.1562  0.0000  0.0521  0.0260 </r>
       </set>
       <set comment="band 2">
        <r>  0.0000  0.0000  0.0000  0.0000  0.0726  0.1453  0.0000  0.4358  0.2179 </r>
       </set>
       <set comment="band 3">
        <r>  0.0000  0.0105  0.0000  0.0349  0.1625  0.0812  0.0008  0.2210  0.4419 </r>
       </set>
       <set comment="band 4">
        <r>  0.0000  0.0122  0.0303  0.0030  0.1400  0.0700  0.6041  0.0311  0.0622 </r>
       </set>
       <set comment="band 5">
        <r>  0.0000  0.0000  0.0000  0.0000  0.3254  0.1627  0.3254  0.0542  0.1085 </r>
       </set>
       <set comment="band 6">
        <r>  0.1474  0.0508  0.0338  0.0169  0.1717  0.3433  0.0000  0.1144  0.0572 </r>
       </set>
       <set comment="band 7">
        <r>  0.0000  0.1070  0.3488  0.0721  0.0692  0.0346  0.2307  0.0049  0.0098 </r>
       </set>
       <set comment="band 8">
        <r>  0.0000  0.1570  0.0032  0.3679  0.0472  0.0236  0.0021  0.0921  0.1842 </r>
       </set>
       <set comment="band 9">
        <r>  0.0000  0.0000  0.0000  0.0000  0.0635  0.1270  0.0000  0.3812  0.1906 </r>
       </set>
      </set>
      <set comment="kpoint 18">
       <set comment="band 1">
        <r>  0.0417  0.0584  0.0327  0.0265  0.3240  0.3028  0.0144  0.0261  0.0001 </r>
       </set>
       <set comment="band 2">
        <r>  0.0000  0.0069  0.0014  0.0387  0.0382  0.0085  0.0076  0.4484  0.3012 </r>
       </set>
       <set comment="band 3">
        <r>  0.0000  0.0193  0.0129  0.0064  0.1126  0.0563  0.5995  0.0490  0.0979 </r>
       </set>
       <set comment="band 4">
        <r>  0.0224  0.0016  0.0181  0.0149  0.1095  0.3786  0.2607  0.0901  0.0529 </r>
       </set>
       <set comment="band 5">
        <r>  0.0000  0.0016  0.0010  0.0005  0.2116  0.1058  0.0142  0.2172  0.4345 </r>
       </set>
       <set comment="band 6">
        <r>  0.1315  0.1554  0.0391  0.1625  0.1444  0.0919  0.0122  0.1058  0.0181 </r>
       </set>
       <set comment="band 7">
        <r>  0.1445  0.0004  0.1153  0.2646  0.1025  0.0089  0.0665  0.0268  0.1149 </r>
       </set>
       <set comment="band 8">
        <r>  0.0000  0.3065  0.2044  0.1022  0.0109  0.0054  0.1202  0.0241  0.0483 </r>
       </set>
       <set comment="band 9">
        <r>  0.0980  0.0054  0.0023  0.0037  0.0937  0.3014  0.0030  0.1813  0.0643 </r>
       </set>
      </set>
      <set comment="kpoint 19">
       <set comment="band 1">
        <r>  0.0000  0.0415  0.0000  0.0093  0.3014  0.3486  0.0000  0.0778  0.0673 </r>
       </set>
       <set comment="band 2">
        <r>  0.0000  0.0093  0.0000  0.0415  0.0673  0.0778  0.0000  0.3486  0.3014 </r>
       </set>
       <set comment="band 3">
        <r>  0.0247  0.0000  0.0387  0.0000  0.0000  0.0000  0.8812  0.0000  0.0000 </r>
       </set>
       <set comment="band 4">
        <r>  0.0000  0.0226  0.0000  0.0007  0.4543  0.4697  0.0000  0.0148  0.0143 </r>
       </set>
       <set comment="band 5">
        <r>  0.0000  0.0007  0.0000  0.0226  0.0143  0.0148  0.0000  0.4698  0.4543 </r>
       </set>
       <set comment="band 6">
        <r>  0.0000  0.1800  0.0000  0.3747  0.0750  0.0143  0.0000  0.0297  0.1561 </r>
       </set>
       <set comment="band 7">
        <r>  0.0000  0.3747  0.0000  0.1800  0.1561  0.0297  0.0000  0.0143  0.0750 </r>
       </set>
       <set comment="band 8">
        <r>  0.3029  0.0000  0.3176  0.0000  0.0000  0.0000  0.1815  0.0000  0.0000 </r>
       </set>
       <set comment="band 9">
        <r>  0.0000  0.0332  0.0000  0.0594  0.0541  0.1911  0.0000  0.3424  0.0970 </r>
       </set>
      </set>
      <set comment="kpoint 20">
       <set comment="band 1">
        <r>  0.0024  0.0173  0.0115  0.0058  0.2017  0.4035  0.0000  0.1345  0.0672 </r>
       </set>
       <set comment="band 2">
        <r>  0.0000  0.0000  0.0000  0.0000  0.0709  0.1418  0.0000  0.4255  0.2128 </r>
       </set>
       <set comment="band 3">
        <r>  0.0000  0.0071  0.0001  0.0184  0.1402  0.0701  0.0020  0.2454  0.4908 </r>
       </set>
       <set comment="band 4">
        <r>  0.0000  0.0057  0.0170  0.0029  0.1760  0.0880  0.6302  0.0181  0.0361 </r>
       </set>
       <set comment="band 5">
        <r>  0.0000  0.0000  0.0000  0.0000  0.3288  0.1644  0.3288  0.0548  0.1096 </r>
       </set>
       <set comment="band 6">
        <r>  0.0991  0.2725  0.1817  0.0908  0.0363  0.0726  0.0000  0.0242  0.0121 </r>
       </set>
       <set comment="band 7">
        <r>  0.0000  0.1429  0.4580  0.0914  0.0141  0.0070  0.0475  0.0011  0.0021 </r>
       </set>
       <set comment="band 8">
        <r>  0.0000  0.2033  0.0035  0.4855  0.0099  0.0049  0.0004  0.0189  0.0378 </r>
       </set>
       <set comment="band 9">
        <r>  0.0000  0.0000  0.0000  0.0000  0.0752  0.1503  0.0000  0.4502  0.2251 </r>
       </set>
      </set>
     </set>
    </set>
   </array>
  </projected>
 </calculation>
 <structure name="finalpos" >
  <crystal>
   <varray name="basis" >
    <v>       2.31889200       0.00000000      -0.81985200 </v>
    <v>      -1.15944600       2.00822000      -0.81985200 </v>
    <v>       0.00000000       0.00000000       2.45955700 </v>
   </varray>
   <i name="volume">     11.45377644 </i>
   <varray name="rec_basis" >
    <v>       0.43124044       0.24897671      -0.00000000 </v>
    <v>      -0.00000000       0.49795341       0.00000000 </v>
    <v>       0.14374675       0.24897660       0.40657728 </v>
   </varray>
  </crystal>
  <varray name="positions" >
   <v>       0.00000000       0.00000000       0.00000000 </v>
  </varray>
 </structure>
</modeling>
