<?xml version="1.0" encoding="ISO-8859-1"?>
<modeling>
 <generator>
  <i name="program" type="string">vasp </i>
  <i name="version" type="string">5.4.4.18Apr17-6-g9f103f2a35  </i>
  <i name="subversion" type="string">(build Feb  5 2022 00:56:52) complex            parallel </i>
  <i name="platform" type="string">LinuxGNU </i>
  <i name="date" type="string">2022 02 08 </i>
  <i name="time" type="string">01:54:30 </i>
 </generator>
 <incar>
  <i type="string" name="PREC">accurate</i>
  <i type="string" name="ALGO"> Fast</i>
  <i type="int" name="ISPIN">     2</i>
  <i type="int" name="ICHARG">     1</i>
  <i type="int" name="NELM">   200</i>
  <i type="int" name="NELMIN">     6</i>
  <i type="int" name="IBRION">     2</i>
  <i name="EDIFF">      0.00001000</i>
  <i type="int" name="NSW">    99</i>
  <i type="int" name="ISIF">     3</i>
  <i type="int" name="ISYM">     0</i>
  <i name="ENCUT">    520.00000000</i>
  <v name="MAGMOM">      0.60000000      0.60000000      0.60000000      0.60000000      0.60000000</v>
  <i type="string" name="LREAL"> Auto</i>
  <i type="int" name="ISMEAR">    -5</i>
  <i name="SIGMA">      0.05000000</i>
  <i name="KSPACING">      0.50000000</i>
  <i type="logical" name="LWAVE"> F  </i>
  <i type="int" name="LORBIT">    11</i>
  <v type="int" name="KPOINT_BSE">    -1     0     0     0</v>
  <i type="int" name="NELM">   200</i>
 </incar>
 <structure name="primitive_cell" >
  <crystal>
   <varray name="basis" >
    <v>       3.87849700       0.00000000       0.00000000 </v>
    <v>      -1.93924900       3.35887700       0.00000000 </v>
    <v>       0.00000000       0.00000000      11.13827800 </v>
   </varray>
   <i name="volume">    145.10274008 </i>
   <varray name="rec_basis" >
    <v>       0.25783184       0.14885931      -0.00000000 </v>
    <v>       0.00000000       0.29771855       0.00000000 </v>
    <v>       0.00000000      -0.00000000       0.08978048 </v>
   </varray>
  </crystal>
  <varray name="positions" >
   <v>       0.33333300      -0.33333300       0.11823300 </v>
   <v>       0.00000000       0.00000000       0.00000000 </v>
   <v>      -0.33333300       0.33333300       0.31299900 </v>
   <v>      -0.33333300       0.33333300      -0.11823300 </v>
   <v>       0.33333300      -0.33333300      -0.31299900 </v>
  </varray>
 </structure>
 <varray name="primitive_index" >
  <v type="int" >        1 </v>
  <v type="int" >        3 </v>
  <v type="int" >        5 </v>
  <v type="int" >        2 </v>
  <v type="int" >        4 </v>
 </varray>
 <kpoints>
  <generation param="Gamma">
   <v type="int" name="divisions">       4        4        2 </v>
   <v name="usershift">      0.00000000       0.00000000       0.00000000 </v>
   <v name="genvec1">      0.25000000      -0.00000000       0.00000000 </v>
   <v name="genvec2">      0.00000000       0.25000000       0.00000000 </v>
   <v name="genvec3">      0.00000000       0.00000000       0.50000000 </v>
   <v name="shift">      0.00000000       0.00000000       0.00000000 </v>
  </generation>
  <varray name="kpointlist" >
   <v>       0.00000000       0.00000000       0.00000000 </v>
   <v>       0.25000000       0.00000000       0.00000000 </v>
   <v>       0.50000000       0.00000000       0.00000000 </v>
   <v>       0.00000000       0.25000000       0.00000000 </v>
   <v>       0.25000000       0.25000000       0.00000000 </v>
   <v>       0.50000000       0.25000000       0.00000000 </v>
   <v>      -0.25000000       0.25000000       0.00000000 </v>
   <v>       0.00000000       0.50000000       0.00000000 </v>
   <v>       0.25000000       0.50000000       0.00000000 </v>
   <v>       0.50000000       0.50000000       0.00000000 </v>
   <v>       0.00000000       0.00000000       0.50000000 </v>
   <v>       0.25000000       0.00000000       0.50000000 </v>
   <v>       0.50000000       0.00000000       0.50000000 </v>
   <v>       0.00000000       0.25000000       0.50000000 </v>
   <v>       0.25000000       0.25000000       0.50000000 </v>
   <v>       0.50000000       0.25000000       0.50000000 </v>
   <v>      -0.25000000       0.25000000       0.50000000 </v>
   <v>       0.00000000       0.50000000       0.50000000 </v>
   <v>       0.25000000       0.50000000       0.50000000 </v>
   <v>       0.50000000       0.50000000       0.50000000 </v>
  </varray>
  <varray name="weights" >
   <v>       0.03125000 </v>
   <v>       0.06250000 </v>
   <v>       0.03125000 </v>
   <v>       0.06250000 </v>
   <v>       0.06250000 </v>
   <v>       0.06250000 </v>
   <v>       0.06250000 </v>
   <v>       0.03125000 </v>
   <v>       0.06250000 </v>
   <v>       0.03125000 </v>
   <v>       0.03125000 </v>
   <v>       0.06250000 </v>
   <v>       0.03125000 </v>
   <v>       0.06250000 </v>
   <v>       0.06250000 </v>
   <v>       0.06250000 </v>
   <v>       0.06250000 </v>
   <v>       0.03125000 </v>
   <v>       0.06250000 </v>
   <v>       0.03125000 </v>
  </varray>
  <varray name="tetrahedronlist"  type="int" >
   <v type="int" >        2        2        4        5       14 </v>
   <v type="int" >        2        1        2        4       14 </v>
   <v type="int" >        2        1        2       11       14 </v>
   <v type="int" >        2        2        5       14       15 </v>
   <v type="int" >        2        2       12       14       15 </v>
   <v type="int" >        2        2       11       12       14 </v>
   <v type="int" >        2        3        5        6       15 </v>
   <v type="int" >        2        2        3        5       15 </v>
   <v type="int" >        2        2        3       12       15 </v>
   <v type="int" >        2        3        6       15       16 </v>
   <v type="int" >        2        3       13       15       16 </v>
   <v type="int" >        2        3       12       13       15 </v>
   <v type="int" >        2        2        6        7       16 </v>
   <v type="int" >        2        2        3        6       16 </v>
   <v type="int" >        2        2        3       13       16 </v>
   <v type="int" >        2        2        7       16       17 </v>
   <v type="int" >        2        2       12       16       17 </v>
   <v type="int" >        2        2       12       13       16 </v>
   <v type="int" >        2        1        4        7       17 </v>
   <v type="int" >        2        1        2        7       17 </v>
   <v type="int" >        2        1        2       12       17 </v>
   <v type="int" >        2        1        4       14       17 </v>
   <v type="int" >        2        1       11       14       17 </v>
   <v type="int" >        2        1       11       12       17 </v>
   <v type="int" >        2        5        8        9       18 </v>
   <v type="int" >        2        4        5        8       18 </v>
   <v type="int" >        2        4        5       14       18 </v>
   <v type="int" >        2        5        9       18       19 </v>
   <v type="int" >        2        5       15       18       19 </v>
   <v type="int" >        2        5       14       15       18 </v>
   <v type="int" >        2        6        9       10       19 </v>
   <v type="int" >        2        5        6        9       19 </v>
   <v type="int" >        2        5        6       15       19 </v>
   <v type="int" >        2        6       10       19       20 </v>
   <v type="int" >        2        6       16       19       20 </v>
   <v type="int" >        2        6       15       16       19 </v>
   <v type="int" >        2        7        9       10       20 </v>
   <v type="int" >        2        6        7       10       20 </v>
   <v type="int" >        2        6        7       16       20 </v>
   <v type="int" >        2        7        9       19       20 </v>
   <v type="int" >        2        7       17       19       20 </v>
   <v type="int" >        2        7       16       17       20 </v>
   <v type="int" >        2        4        8        9       19 </v>
   <v type="int" >        2        4        7        9       19 </v>
   <v type="int" >        2        4        7       17       19 </v>
   <v type="int" >        2        4        8       18       19 </v>
   <v type="int" >        2        4       14       18       19 </v>
   <v type="int" >        2        4       14       17       19 </v>
   <v type="int" >        2        4        7        9       14 </v>
   <v type="int" >        2        4        8        9       14 </v>
   <v type="int" >        2        8        9       14       18 </v>
   <v type="int" >        2        7        9       14       17 </v>
   <v type="int" >        2        9       14       17       19 </v>
   <v type="int" >        2        9       14       18       19 </v>
   <v type="int" >        2        6        7       10       17 </v>
   <v type="int" >        2        7        9       10       17 </v>
   <v type="int" >        2        9       10       17       19 </v>
   <v type="int" >        2        6       10       16       17 </v>
   <v type="int" >        2       10       16       17       20 </v>
   <v type="int" >        2       10       17       19       20 </v>
   <v type="int" >        2        5        6        9       16 </v>
   <v type="int" >        2        6        9       10       16 </v>
   <v type="int" >        2        9       10       16       20 </v>
   <v type="int" >        2        5        9       15       16 </v>
   <v type="int" >        2        9       15       16       19 </v>
   <v type="int" >        2        9       16       19       20 </v>
   <v type="int" >        2        4        5        8       15 </v>
   <v type="int" >        2        5        8        9       15 </v>
   <v type="int" >        2        8        9       15       19 </v>
   <v type="int" >        2        4        8       14       15 </v>
   <v type="int" >        2        8       14       15       18 </v>
   <v type="int" >        2        8       15       18       19 </v>
   <v type="int" >        2        1        2        7       11 </v>
   <v type="int" >        2        1        4        7       11 </v>
   <v type="int" >        2        4        7       11       14 </v>
   <v type="int" >        2        2        7       11       12 </v>
   <v type="int" >        2        7       11       12       17 </v>
   <v type="int" >        2        7       11       14       17 </v>
   <v type="int" >        2        2        3        6       12 </v>
   <v type="int" >        2        2        6        7       12 </v>
   <v type="int" >        2        6        7       12       17 </v>
   <v type="int" >        2        3        6       12       13 </v>
   <v type="int" >        2        6       12       13       16 </v>
   <v type="int" >        2        6       12       16       17 </v>
   <v type="int" >        2        2        3        5       13 </v>
   <v type="int" >        2        3        5        6       13 </v>
   <v type="int" >        2        5        6       13       16 </v>
   <v type="int" >        2        2        5       12       13 </v>
   <v type="int" >        2        5       12       13       15 </v>
   <v type="int" >        2        5       13       15       16 </v>
   <v type="int" >        2        1        2        4       12 </v>
   <v type="int" >        2        2        4        5       12 </v>
   <v type="int" >        2        4        5       12       15 </v>
   <v type="int" >        2        1        4       11       12 </v>
   <v type="int" >        2        4       11       12       14 </v>
   <v type="int" >        2        4       12       14       15 </v>
  </varray>
  <i name="volumeweight">      0.00520833 </i>
 </kpoints>
 <parameters>
  <separator name="general" >
   <i type="string" name="SYSTEM">unknown system</i>
   <i type="logical" name="LCOMPAT"> F  </i>
  </separator>
  <separator name="electronic" >
   <i type="string" name="PREC">accura</i>
   <i name="ENMAX">    520.00000000</i>
   <i name="ENAUG">    644.87300000</i>
   <i name="EDIFF">      0.00001000</i>
   <i type="int" name="IALGO">    68</i>
   <i type="int" name="IWAVPR">    11</i>
   <i type="int" name="NBANDS">    26</i>
   <i name="NELECT">     40.00000000</i>
   <i type="int" name="TURBO">     0</i>
   <i type="int" name="IRESTART">     0</i>
   <i type="int" name="NREBOOT">     0</i>
   <i type="int" name="NMIN">     0</i>
   <i name="EREF">      0.00000000</i>
   <separator name="electronic smearing" >
    <i type="int" name="ISMEAR">    -5</i>
    <i name="SIGMA">      0.05000000</i>
    <i name="KSPACING">      0.50000000</i>
    <i type="logical" name="KGAMMA"> T  </i>
   </separator>
   <separator name="electronic projectors" >
    <i type="logical" name="LREAL"> T  </i>
    <v name="ROPT">     -0.00025000     -0.00025000     -0.00025000</v>
    <i type="int" name="LMAXPAW">  -100</i>
    <i type="int" name="LMAXMIX">     2</i>
    <i type="logical" name="NLSPLINE"> F  </i>
   </separator>
   <separator name="electronic startup" >
    <i type="int" name="ISTART">     0</i>
    <i type="int" name="ICHARG">     1</i>
    <i type="int" name="INIWAV">     1</i>
   </separator>
   <separator name="electronic spin" >
    <i type="int" name="ISPIN">     2</i>
    <i type="logical" name="LNONCOLLINEAR"> F  </i>
    <v name="MAGMOM">      0.60000000      0.60000000      0.60000000      0.60000000      0.60000000</v>
    <i name="NUPDOWN">     -1.00000000</i>
    <i type="logical" name="LSORBIT"> F  </i>
    <v name="SAXIS">      0.00000000      0.00000000      1.00000000</v>
    <i type="logical" name="LSPIRAL"> F  </i>
    <v name="QSPIRAL">      0.00000000      0.00000000      0.00000000</v>
    <i type="logical" name="LZEROZ"> F  </i>
   </separator>
   <separator name="electronic exchange-correlation" >
    <i type="logical" name="LASPH"> F  </i>
    <i type="logical" name="LMETAGGA"> F  </i>
   </separator>
   <separator name="electronic convergence" >
    <i type="int" name="NELM">   200</i>
    <i type="int" name="NELMDL">    -5</i>
    <i type="int" name="NELMIN">     6</i>
    <i name="ENINI">    520.00000000</i>
    <separator name="electronic convergence detail" >
     <i type="logical" name="LDIAG"> T  </i>
     <i type="logical" name="LSUBROT"> F  </i>
     <i name="WEIMIN">      0.00100000</i>
     <i name="EBREAK">      0.00000010</i>
     <i name="DEPER">      0.30000000</i>
     <i type="int" name="NRMM">     4</i>
     <i name="TIME">      0.40000000</i>
    </separator>
   </separator>
   <separator name="electronic mixer" >
    <i name="AMIX">      0.40000000</i>
    <i name="BMIX">      1.00000000</i>
    <i name="AMIN">      0.10000000</i>
    <i name="AMIX_MAG">      1.60000000</i>
    <i name="BMIX_MAG">      1.00000000</i>
    <separator name="electronic mixer details" >
     <i type="int" name="IMIX">     4</i>
     <i type="logical" name="MIXFIRST"> F  </i>
     <i type="int" name="MAXMIX">   -45</i>
     <i name="WC">    100.00000000</i>
     <i type="int" name="INIMIX">     1</i>
     <i type="int" name="MIXPRE">     1</i>
     <i type="int" name="MREMOVE">     5</i>
    </separator>
   </separator>
   <separator name="electronic dipolcorrection" >
    <i type="logical" name="LDIPOL"> F  </i>
    <i type="logical" name="LMONO"> F  </i>
    <i type="int" name="IDIPOL">     0</i>
    <i name="EPSILON">      1.00000000</i>
    <v name="DIPOL">   -100.00000000   -100.00000000   -100.00000000</v>
    <i name="EFIELD">      0.00000000</i>
   </separator>
  </separator>
  <separator name="grids" >
   <i type="int" name="NGX">    30</i>
   <i type="int" name="NGY">    30</i>
   <i type="int" name="NGZ">    84</i>
   <i type="int" name="NGXF">    60</i>
   <i type="int" name="NGYF">    60</i>
   <i type="int" name="NGZF">   168</i>
   <i type="logical" name="ADDGRID"> F  </i>
  </separator>
  <separator name="ionic" >
   <i type="int" name="NSW">    99</i>
   <i type="int" name="IBRION">     2</i>
   <i type="int" name="MDALGO">     0</i>
   <i type="int" name="ISIF">     3</i>
   <i name="PSTRESS">      0.00000000</i>
   <i name="EDIFFG">      0.00010000</i>
   <i type="int" name="NFREE">     1</i>
   <i name="POTIM">      0.50000000</i>
   <i name="SMASS">     -3.00000000</i>
   <i name="SCALEE">      1.00000000</i>
  </separator>
  <separator name="ionic md" >
   <i name="TEBEG">      0.00010000</i>
   <i name="TEEND">      0.00010000</i>
   <i type="int" name="NBLOCK">     1</i>
   <i type="int" name="KBLOCK">    99</i>
   <i type="int" name="NPACO">   256</i>
   <i name="APACO">     16.00000000</i>
  </separator>
  <separator name="symmetry" >
   <i type="int" name="ISYM">     0</i>
   <i name="SYMPREC">      0.00001000</i>
  </separator>
  <separator name="dos" >
   <i type="int" name="LORBIT">    11</i>
   <v name="RWIGS">     -1.00000000     -1.00000000     -1.00000000</v>
   <i type="int" name="NEDOS">   301</i>
   <i name="EMIN">     10.00000000</i>
   <i name="EMAX">    -10.00000000</i>
   <i name="EFERMI">      0.00000000</i>
  </separator>
  <separator name="writing" >
   <i type="int" name="NWRITE">     2</i>
   <i type="logical" name="LWAVE"> F  </i>
   <i type="logical" name="LDOWNSAMPLE"> F  </i>
   <i type="logical" name="LCHARG"> T  </i>
   <i type="logical" name="LPARD"> F  </i>
   <i type="logical" name="LVTOT"> F  </i>
   <i type="logical" name="LVHAR"> F  </i>
   <i type="logical" name="LELF"> F  </i>
   <i type="logical" name="LOPTICS"> F  </i>
   <v name="STM">      0.00000000      0.00000000      0.00000000      0.00000000      0.00000000      0.00000000      0.00000000</v>
  </separator>
  <separator name="performance" >
   <i type="int" name="NPAR">     1</i>
   <i type="int" name="NSIM">     4</i>
   <i type="int" name="NBLK">    -1</i>
   <i type="logical" name="LPLANE"> T  </i>
   <i type="logical" name="LSCALAPACK"> T  </i>
   <i type="logical" name="LSCAAWARE"> F  </i>
   <i type="logical" name="LSCALU"> F  </i>
   <i type="logical" name="LASYNC"> F  </i>
   <i type="logical" name="LORBITALREAL"> F  </i>
  </separator>
  <separator name="miscellaneous" >
   <i type="int" name="IDIOT">     3</i>
   <i type="int" name="ISPECIAL">     0</i>
   <i type="logical" name="LMUSIC"> F  </i>
   <v name="POMASS">     88.90600000     12.01100000    126.90400000</v>
   <v name="DARWINR">      0.00000000      0.00000000      0.00000000</v>
   <v name="DARWINV">      1.00000000      1.00000000      1.00000000</v>
   <i type="logical" name="LCORR"> T  </i>
  </separator>
  <i type="logical" name="GGA_COMPAT"> T  </i>
  <i type="logical" name="LBERRY"> F  </i>
  <i type="int" name="ICORELEVEL">     0</i>
  <i type="logical" name="LDAU"> F  </i>
  <i type="int" name="I_CONSTRAINED_M">     0</i>
  <separator name="electronic exchange-correlation" >
   <i type="string" name="GGA">--</i>
   <i type="int" name="VOSKOWN">     0</i>
   <i type="logical" name="LHFCALC"> F  </i>
   <i type="string" name="PRECFOCK"></i>
   <i type="logical" name="LSYMGRAD"> F  </i>
   <i type="logical" name="LHFONE"> F  </i>
   <i type="logical" name="LRHFCALC"> F  </i>
   <i type="logical" name="LTHOMAS"> F  </i>
   <i type="logical" name="LMODELHF"> F  </i>
   <i name="ENCUT4O">     -1.00000000</i>
   <i type="int" name="EXXOEP">     0</i>
   <i type="int" name="FOURORBIT">     0</i>
   <i name="AEXX">      0.00000000</i>
   <i name="HFALPHA">      0.00000000</i>
   <i name="MCALPHA">      0.00000000</i>
   <i name="ALDAX">      1.00000000</i>
   <i name="AGGAX">      1.00000000</i>
   <i name="ALDAC">      1.00000000</i>
   <i name="AGGAC">      1.00000000</i>
   <i type="int" name="NKREDX">     1</i>
   <i type="int" name="NKREDY">     1</i>
   <i type="int" name="NKREDZ">     1</i>
   <i type="logical" name="SHIFTRED"> F  </i>
   <i type="logical" name="ODDONLY"> F  </i>
   <i type="logical" name="EVENONLY"> F  </i>
   <i type="int" name="LMAXFOCK">     0</i>
   <i type="int" name="NMAXFOCKAE">     0</i>
   <i type="logical" name="LFOCKAEDFT"> F  </i>
   <i name="HFSCREEN">      0.00000000</i>
   <i name="HFSCREENC">      0.00000000</i>
   <i type="int" name="NBANDSGWLOW">     0</i>
  </separator>
  <separator name="vdW DFT" >
   <i type="logical" name="LUSE_VDW"> F  </i>
   <i name="Zab_VDW">     -0.84910000</i>
   <i name="PARAM1">      0.12340000</i>
   <i name="PARAM2">      1.00000000</i>
   <i name="PARAM3">      0.00000000</i>
  </separator>
  <separator name="model GW" >
   <i type="int" name="MODEL_GW">     0</i>
   <i name="MODEL_EPS0">     17.41232881</i>
   <i name="MODEL_ALPHA">      1.00000000</i>
  </separator>
  <separator name="linear response parameters" >
   <i type="logical" name="LEPSILON"> F  </i>
   <i type="logical" name="LRPA"> F  </i>
   <i type="logical" name="LNABLA"> F  </i>
   <i type="logical" name="LVEL"> F  </i>
   <i type="int" name="KINTER">     0</i>
   <i name="CSHIFT">      0.10000000</i>
   <i name="OMEGAMAX">     -1.00000000</i>
   <i name="DEG_THRESHOLD">      0.00200000</i>
   <i name="RTIME">     -0.10000000</i>
   <i name="WPLASMAI">      0.00000000</i>
   <v name="DFIELD">      0.00000000      0.00000000      0.00000000</v>
   <v name="WPLASMA">      0.00000000      0.00000000      0.00000000      0.00000000      0.00000000      0.00000000      0.00000000      0.00000000      0.00000000</v>
  </separator>
  <separator name="orbital magnetization" >
   <i type="logical" name="NUCIND"> F  </i>
   <v name="MAGPOS">      0.00000000      0.00000000      0.00000000</v>
   <i type="logical" name="LNICSALL"> T  </i>
   <i type="logical" name="ORBITALMAG"> F  </i>
   <i type="logical" name="LMAGBLOCH"> F  </i>
   <i type="logical" name="LCHIMAG"> F  </i>
   <i type="logical" name="LGAUGE"> T  </i>
   <i type="int" name="MAGATOM">     0</i>
   <v name="MAGDIPOL">      0.00000000      0.00000000      0.00000000</v>
   <v name="AVECCONST">      0.00000000      0.00000000      0.00000000</v>
  </separator>
  <separator name="response functions" >
   <i type="logical" name="LADDER"> F  </i>
   <i type="logical" name="LRPAFORCE"> F  </i>
   <i type="logical" name="LFXC"> F  </i>
   <i type="logical" name="LHARTREE"> T  </i>
   <i type="int" name="IBSE">     0</i>
   <v type="int" name="KPOINT">    -1     0     0     0</v>
   <i type="logical" name="LTCTE"> F  </i>
   <i type="logical" name="LTETE"> F  </i>
   <i type="logical" name="LTRIPLET"> F  </i>
   <i type="logical" name="LFXCEPS"> F  </i>
   <i type="logical" name="LFXHEG"> F  </i>
   <i type="int" name="NATURALO">     2</i>
   <i type="logical" name="L2ORDER"> F  </i>
   <i type="logical" name="LMP2LT"> F  </i>
   <i type="logical" name="LUSEW"> F  </i>
   <i name="ENCUTGW">     -2.00000000</i>
   <i name="ENCUTGWSOFT">     -2.00000000</i>
   <i name="ENCUTLF">     -1.00000000</i>
   <i type="int" name="LMAXMP2">    -1</i>
   <i name="SCISSOR">      0.00000000</i>
   <i type="int" name="NOMEGA">     0</i>
   <i type="int" name="NOMEGAR">     0</i>
   <i type="int" name="NBANDSGW">    -1</i>
   <i type="int" name="NBANDSO">    -1</i>
   <i type="int" name="NBANDSV">    -1</i>
   <i type="int" name="NELM">   200</i>
   <i type="int" name="NELMHF">     1</i>
   <i type="int" name="DIM">     3</i>
   <i type="int" name="ANTIRES">     0</i>
   <i name="OMEGAMAX">    -30.00000000</i>
   <i name="OMEGAMIN">    -30.00000000</i>
   <i name="OMEGATL">   -200.00000000</i>
   <i type="int" name="OMEGAGRID">   140</i>
   <i name="CSHIFT">     -0.10000000</i>
   <i type="logical" name="SELFENERGY"> F  </i>
   <i type="logical" name="LSPECTRAL"> F  </i>
   <i type="logical" name="LSPECTRALGW"> F  </i>
   <i type="logical" name="LSINGLES"> F  </i>
   <i type="logical" name="LFERMIGW"> F  </i>
   <i type="logical" name="ODDONLYGW"> F  </i>
   <i type="logical" name="EVENONLYGW"> F  </i>
   <i type="int" name="NKREDLFX">     1</i>
   <i type="int" name="NKREDLFY">     1</i>
   <i type="int" name="NKREDLFZ">     1</i>
   <i type="int" name="MAXMEM">  2800</i>
   <i type="int" name="TELESCOPE">     0</i>
   <i type="int" name="TAUPAR">     1</i>
   <i type="int" name="OMEGAPAR">    -1</i>
   <i name="LAMBDA">      1.00000000</i>
  </separator>
  <separator name="External order field" >
   <i name="OFIELD_KAPPA">      0.00000000</i>
   <v name="OFIELD_K">      0.00000000      0.00000000      0.00000000</v>
   <i name="OFIELD_Q6_NEAR">      0.00000000</i>
   <i name="OFIELD_Q6_FAR">      0.00000000</i>
   <i name="OFIELD_A">      0.00000000</i>
  </separator>
 </parameters>
 <atominfo>
  <atoms>       5 </atoms>
  <types>       3 </types>
  <array name="atoms" >
   <dimension dim="1">ion</dimension>
   <field type="string">element</field>
   <field type="int">atomtype</field>
   <set>
    <rc><c>Y </c><c>   1</c></rc>
    <rc><c>Y </c><c>   1</c></rc>
    <rc><c>C </c><c>   2</c></rc>
    <rc><c>I </c><c>   3</c></rc>
    <rc><c>I </c><c>   3</c></rc>
   </set>
  </array>
  <array name="atomtypes" >
   <dimension dim="1">type</dimension>
   <field type="int">atomspertype</field>
   <field type="string">element</field>
   <field>mass</field>
   <field>valence</field>
   <field type="string">pseudopotential</field>
   <set>
    <rc><c>   2</c><c>Y </c><c>     88.90600000</c><c>     11.00000000</c><c>  PAW_PBE Y_sv 25May2007                </c></rc>
    <rc><c>   1</c><c>C </c><c>     12.01100000</c><c>      4.00000000</c><c>  PAW_PBE C 08Apr2002                   </c></rc>
    <rc><c>   2</c><c>I </c><c>    126.90400000</c><c>      7.00000000</c><c>  PAW_PBE I 08Apr2002                   </c></rc>
   </set>
  </array>
 </atominfo>
 <structure name="initialpos" >
  <crystal>
   <varray name="basis" >
    <v>       3.87849700       0.00000000       0.00000000 </v>
    <v>      -1.93924900       3.35887700       0.00000000 </v>
    <v>       0.00000000       0.00000000      11.13827800 </v>
   </varray>
   <i name="volume">    145.10274008 </i>
   <varray name="rec_basis" >
    <v>       0.25783184       0.14885931      -0.00000000 </v>
    <v>       0.00000000       0.29771855       0.00000000 </v>
    <v>       0.00000000      -0.00000000       0.08978048 </v>
   </varray>
  </crystal>
  <varray name="positions" >
   <v>       0.33333300       0.66666700       0.11823300 </v>
   <v>       0.66666700       0.33333300       0.88176700 </v>
   <v>       0.00000000       0.00000000       0.00000000 </v>
   <v>       0.33333300       0.66666700       0.68700100 </v>
   <v>       0.66666700       0.33333300       0.31299900 </v>
  </varray>
 </structure>
 <calculation>
  <scstep>
   <time name="dav">    1.78    1.79</time>
   <time name="total">    1.92    1.93</time>
   <energy>
    <i name="alphaZ">    129.45810140 </i>
    <i name="ewald">  -1589.27977325 </i>
    <i name="hartreedc">  -1192.90357768 </i>
    <i name="XCdc">     70.84337107 </i>
    <i name="pawpsdc">   2256.75144894 </i>
    <i name="pawaedc">  -2177.84970691 </i>
    <i name="eentropy">      0.00000000 </i>
    <i name="bandstr">   -146.39220282 </i>
    <i name="atom">   2872.70909303 </i>
    <i name="e_fr_energy">    223.33675379 </i>
    <i name="e_wo_entrp">    223.33675379 </i>
    <i name="e_0_energy">    223.33675379 </i>
   </energy>
  </scstep>
  <scstep>
   <time name="dav">    2.07    2.08</time>
   <time name="total">    2.08    2.09</time>
   <energy>
    <i name="e_fr_energy">    -12.90504802 </i>
    <i name="e_wo_entrp">    -12.90504802 </i>
    <i name="e_0_energy">    -12.90504802 </i>
   </energy>
  </scstep>
  <scstep>
   <time name="dav">    2.65    2.66</time>
   <time name="total">    2.66    2.67</time>
   <energy>
    <i name="e_fr_energy">    -33.93313523 </i>
    <i name="e_wo_entrp">    -33.93313523 </i>
    <i name="e_0_energy">    -33.93313523 </i>
   </energy>
  </scstep>
  <scstep>
   <time name="dav">    2.64    2.65</time>
   <time name="total">    2.64    2.65</time>
   <energy>
    <i name="e_fr_energy">    -35.27199440 </i>
    <i name="e_wo_entrp">    -35.27199440 </i>
    <i name="e_0_energy">    -35.27199440 </i>
   </energy>
  </scstep>
  <scstep>
   <time name="dav">    2.38    2.39</time>
   <time name="total">    2.50    2.51</time>
   <energy>
    <i name="e_fr_energy">    -35.31238440 </i>
    <i name="e_wo_entrp">    -35.31238440 </i>
    <i name="e_0_energy">    -35.31238440 </i>
   </energy>
  </scstep>
  <scstep>
   <time name="diag">    0.33    0.33</time>
   <time name="diis">    1.28    1.28</time>
   <time name="orth">    0.01    0.01</time>
   <time name="total">    1.88    1.89</time>
   <energy>
    <i name="e_fr_energy">    -30.29171939 </i>
    <i name="e_wo_entrp">    -30.29171939 </i>
    <i name="e_0_energy">    -30.29171939 </i>
   </energy>
  </scstep>
  <scstep>
   <time name="diag">    0.33    0.33</time>
   <time name="diis">    1.40    1.41</time>
   <time name="orth">    0.01    0.01</time>
   <time name="total">    2.00    2.01</time>
   <energy>
    <i name="e_fr_energy">    -30.00389038 </i>
    <i name="e_wo_entrp">    -30.00389038 </i>
    <i name="e_0_energy">    -30.00389038 </i>
   </energy>
  </scstep>
  <scstep>
   <time name="diag">    0.33    0.33</time>
   <time name="diis">    1.33    1.34</time>
   <time name="orth">    0.01    0.01</time>
   <time name="total">    1.92    1.93</time>
   <energy>
    <i name="e_fr_energy">    -30.03834971 </i>
    <i name="e_wo_entrp">    -30.03834971 </i>
    <i name="e_0_energy">    -30.03834971 </i>
   </energy>
  </scstep>
  <scstep>
   <time name="diag">    0.33    0.33</time>
   <time name="diis">    1.68    1.68</time>
   <time name="orth">    0.01    0.01</time>
   <time name="total">    2.27    2.28</time>
   <energy>
    <i name="e_fr_energy">    -30.04889691 </i>
    <i name="e_wo_entrp">    -30.04889691 </i>
    <i name="e_0_energy">    -30.04889691 </i>
   </energy>
  </scstep>
  <scstep>
   <time name="diag">    0.33    0.33</time>
   <time name="diis">    1.56    1.57</time>
   <time name="orth">    0.01    0.01</time>
   <time name="total">    2.16    2.16</time>
   <energy>
    <i name="e_fr_energy">    -30.05113392 </i>
    <i name="e_wo_entrp">    -30.05113392 </i>
    <i name="e_0_energy">    -30.05113392 </i>
   </energy>
  </scstep>
  <scstep>
   <time name="diag">    0.33    0.33</time>
   <time name="diis">    1.73    1.73</time>
   <time name="orth">    0.01    0.01</time>
   <time name="total">    2.32    2.33</time>
   <energy>
    <i name="e_fr_energy">    -30.05208856 </i>
    <i name="e_wo_entrp">    -30.05208856 </i>
    <i name="e_0_energy">    -30.05208856 </i>
   </energy>
  </scstep>
  <scstep>
   <time name="diag">    0.33    0.33</time>
   <time name="diis">    1.55    1.56</time>
   <time name="orth">    0.01    0.01</time>
   <time name="total">    2.14    2.15</time>
   <energy>
    <i name="e_fr_energy">    -30.05270339 </i>
    <i name="e_wo_entrp">    -30.05270339 </i>
    <i name="e_0_energy">    -30.05270339 </i>
   </energy>
  </scstep>
  <scstep>
   <time name="diag">    0.33    0.33</time>
   <time name="diis">    1.60    1.60</time>
   <time name="orth">    0.01    0.01</time>
   <time name="total">    2.19    2.19</time>
   <energy>
    <i name="e_fr_energy">    -30.05273343 </i>
    <i name="e_wo_entrp">    -30.05273343 </i>
    <i name="e_0_energy">    -30.05273343 </i>
   </energy>
  </scstep>
  <scstep>
   <time name="diag">    0.32    0.32</time>
   <time name="diis">    1.47    1.47</time>
   <time name="orth">    0.01    0.01</time>
   <time name="total">    2.05    2.06</time>
   <energy>
    <i name="e_fr_energy">    -30.05277346 </i>
    <i name="e_wo_entrp">    -30.05277346 </i>
    <i name="e_0_energy">    -30.05277346 </i>
   </energy>
  </scstep>
  <scstep>
   <time name="diag">    0.33    0.33</time>
   <time name="diis">    1.25    1.25</time>
   <time name="orth">    0.01    0.01</time>
   <time name="total">    1.84    1.84</time>
   <energy>
    <i name="e_fr_energy">    -30.05279612 </i>
    <i name="e_wo_entrp">    -30.05279612 </i>
    <i name="e_0_energy">    -30.05279612 </i>
   </energy>
  </scstep>
  <scstep>
   <time name="diag">    0.33    0.34</time>
   <time name="diis">    0.91    0.91</time>
   <time name="orth">    0.01    0.01</time>
   <time name="total">    1.37    1.38</time>
   <energy>
    <i name="alphaZ">    129.45810140 </i>
    <i name="ewald">  -1589.27977325 </i>
    <i name="hartreedc">  -1194.64376585 </i>
    <i name="XCdc">     70.70920799 </i>
    <i name="pawpsdc">   3870.09545725 </i>
    <i name="pawaedc">  -3793.39697438 </i>
    <i name="eentropy">      0.00000000 </i>
    <i name="bandstr">   -395.70414824 </i>
    <i name="atom">   2872.70909303 </i>
    <i name="e_fr_energy">    -30.05280205 </i>
    <i name="e_wo_entrp">    -30.05280205 </i>
    <i name="e_0_energy">    -30.05280205 </i>
   </energy>
  </scstep>
  <structure>
   <crystal>
    <varray name="basis" >
     <v>       3.87849700       0.00000000       0.00000000 </v>
     <v>      -1.93924900       3.35887700       0.00000000 </v>
     <v>       0.00000000       0.00000000      11.13827800 </v>
    </varray>
    <i name="volume">    145.10274008 </i>
    <varray name="rec_basis" >
     <v>       0.25783184       0.14885931      -0.00000000 </v>
     <v>       0.00000000       0.29771855       0.00000000 </v>
     <v>       0.00000000      -0.00000000       0.08978048 </v>
    </varray>
   </crystal>
   <varray name="positions" >
    <v>       0.33333300       0.66666700       0.11823300 </v>
    <v>       0.66666700       0.33333300       0.88176700 </v>
    <v>       0.00000000       0.00000000       0.00000000 </v>
    <v>       0.33333300       0.66666700       0.68700100 </v>
    <v>       0.66666700       0.33333300       0.31299900 </v>
   </varray>
  </structure>
  <varray name="forces" >
   <v>       0.00001198      -0.00003685      -0.10171595 </v>
   <v>      -0.00003436       0.00001889       0.10170385 </v>
   <v>      -0.00001435      -0.00000686      -0.00000640 </v>
   <v>      -0.00001114      -0.00001527       0.03329978 </v>
   <v>       0.00004788       0.00004010      -0.03328129 </v>
  </varray>
  <varray name="stress" >
   <v>       0.74018115       0.00074711       0.00058748 </v>
   <v>       0.00074717       0.74113638      -0.00022264 </v>
   <v>       0.00058731      -0.00022264      -4.18476529 </v>
  </varray>
  <energy>
   <i name="e_fr_energy">    -30.05280205 </i>
   <i name="e_wo_entrp">    -30.05280205 </i>
   <i name="e_0_energy">      0.00000000 </i>
  </energy>
  <time name="totalsc">   38.10   38.37</time>
 </calculation>
 <calculation>
  <scstep>
   <time name="dav">    2.20    2.21</time>
   <time name="total">    2.44    2.45</time>
   <energy>
    <i name="alphaZ">    129.76521230 </i>
    <i name="ewald">  -1590.45893805 </i>
    <i name="hartreedc">  -1195.93985756 </i>
    <i name="XCdc">     70.80109509 </i>
    <i name="pawpsdc">   3870.10432011 </i>
    <i name="pawaedc">  -3793.41844264 </i>
    <i name="eentropy">      0.00000000 </i>
    <i name="bandstr">   -393.61786043 </i>
    <i name="atom">   2872.70909303 </i>
    <i name="e_fr_energy">    -30.05537814 </i>
    <i name="e_wo_entrp">    -30.05537814 </i>
    <i name="e_0_energy">    -30.05537814 </i>
   </energy>
  </scstep>
  <scstep>
   <time name="diag">    0.33    0.33</time>
   <time name="diis">    1.28    1.28</time>
   <time name="orth">    0.01    0.01</time>
   <time name="total">    1.87    1.88</time>
   <energy>
    <i name="e_fr_energy">    -30.05509970 </i>
    <i name="e_wo_entrp">    -30.05509970 </i>
    <i name="e_0_energy">    -30.05509970 </i>
   </energy>
  </scstep>
  <scstep>
   <time name="diag">    0.33    0.33</time>
   <time name="diis">    1.36    1.36</time>
   <time name="orth">    0.01    0.01</time>
   <time name="total">    1.95    1.95</time>
   <energy>
    <i name="e_fr_energy">    -30.05401386 </i>
    <i name="e_wo_entrp">    -30.05401386 </i>
    <i name="e_0_energy">    -30.05401386 </i>
   </energy>
  </scstep>
  <scstep>
   <time name="diag">    0.33    0.33</time>
   <time name="diis">    1.51    1.52</time>
   <time name="orth">    0.01    0.01</time>
   <time name="total">    2.10    2.11</time>
   <energy>
    <i name="e_fr_energy">    -30.05398235 </i>
    <i name="e_wo_entrp">    -30.05398235 </i>
    <i name="e_0_energy">    -30.05398235 </i>
   </energy>
  </scstep>
  <scstep>
   <time name="diag">    0.33    0.33</time>
   <time name="diis">    1.30    1.30</time>
   <time name="orth">    0.01    0.01</time>
   <time name="total">    1.89    1.89</time>
   <energy>
    <i name="e_fr_energy">    -30.05401133 </i>
    <i name="e_wo_entrp">    -30.05401133 </i>
    <i name="e_0_energy">    -30.05401133 </i>
   </energy>
  </scstep>
  <scstep>
   <time name="diag">    0.33    0.33</time>
   <time name="diis">    1.07    1.07</time>
   <time name="orth">    0.01    0.01</time>
   <time name="total">    1.53    1.54</time>
   <energy>
    <i name="alphaZ">    129.76521230 </i>
    <i name="ewald">  -1590.45893805 </i>
    <i name="hartreedc">  -1194.48523517 </i>
    <i name="XCdc">     70.75042220 </i>
    <i name="pawpsdc">   3887.51593550 </i>
    <i name="pawaedc">  -3810.80317331 </i>
    <i name="eentropy">      0.00000000 </i>
    <i name="bandstr">   -395.04732183 </i>
    <i name="atom">   2872.70909303 </i>
    <i name="e_fr_energy">    -30.05400533 </i>
    <i name="e_wo_entrp">    -30.05400533 </i>
    <i name="e_0_energy">    -30.05400533 </i>
   </energy>
  </scstep>
  <structure>
   <crystal>
    <varray name="basis" >
     <v>       3.88100558       0.00000253       0.00000199 </v>
     <v>      -1.94050110       3.36105103      -0.00000165 </v>
     <v>       0.00000572      -0.00000217      11.09754791 </v>
    </varray>
    <i name="volume">    144.75933039 </i>
    <varray name="rec_basis" >
     <v>       0.25766508       0.14876280      -0.00000010 </v>
     <v>      -0.00000019       0.29752587       0.00000006 </v>
     <v>      -0.00000005       0.00000002       0.09011000 </v>
    </varray>
   </crystal>
   <varray name="positions" >
    <v>       0.33333288       0.66666647       0.11779244 </v>
    <v>       0.66666671       0.33333327       0.88220750 </v>
    <v>      -0.00000023      -0.00000010      -0.00000003 </v>
    <v>       0.33333275       0.66666678       0.68714523 </v>
    <v>       0.66666788       0.33333358       0.31285485 </v>
   </varray>
  </structure>
  <varray name="forces" >
   <v>      -0.00003307       0.00000852       0.00696371 </v>
   <v>       0.00002481       0.00002195      -0.00695816 </v>
   <v>       0.00000658      -0.00001350      -0.00000742 </v>
   <v>       0.00001782      -0.00000878       0.00765565 </v>
   <v>      -0.00001613      -0.00000819      -0.00765378 </v>
  </varray>
  <varray name="stress" >
   <v>       1.04373166      -0.00023367      -0.00075906 </v>
   <v>      -0.00023336       1.04336503      -0.00015374 </v>
   <v>      -0.00075961      -0.00015428       0.44090666 </v>
  </varray>
  <energy>
   <i name="e_fr_energy">    -30.05400533 </i>
   <i name="e_wo_entrp">    -30.05400533 </i>
   <i name="e_0_energy">      0.00000000 </i>
  </energy>
  <time name="totalsc">   14.73   14.78</time>
 </calculation>
 <calculation>
  <scstep>
   <time name="dav">    2.06    2.07</time>
   <time name="total">    2.30    2.31</time>
   <energy>
    <i name="alphaZ">    129.75634609 </i>
    <i name="ewald">  -1590.42496347 </i>
    <i name="hartreedc">  -1194.42015487 </i>
    <i name="XCdc">     70.74702440 </i>
    <i name="pawpsdc">   3887.95051308 </i>
    <i name="pawaedc">  -3811.22917858 </i>
    <i name="eentropy">      0.00000000 </i>
    <i name="bandstr">   -395.14269631 </i>
    <i name="atom">   2872.70909303 </i>
    <i name="e_fr_energy">    -30.05401664 </i>
    <i name="e_wo_entrp">    -30.05401664 </i>
    <i name="e_0_energy">    -30.05401664 </i>
   </energy>
  </scstep>
  <scstep>
   <time name="diag">    0.33    0.34</time>
   <time name="diis">    0.81    0.81</time>
   <time name="orth">    0.01    0.01</time>
   <time name="total">    1.39    1.41</time>
   <energy>
    <i name="e_fr_energy">    -30.05401447 </i>
    <i name="e_wo_entrp">    -30.05401447 </i>
    <i name="e_0_energy">    -30.05401447 </i>
   </energy>
  </scstep>
  <scstep>
   <time name="diag">    0.33    0.33</time>
   <time name="diis">    0.73    0.73</time>
   <time name="orth">    0.01    0.01</time>
   <time name="total">    1.32    1.32</time>
   <energy>
    <i name="e_fr_energy">    -30.05401305 </i>
    <i name="e_wo_entrp">    -30.05401305 </i>
    <i name="e_0_energy">    -30.05401305 </i>
   </energy>
  </scstep>
  <scstep>
   <time name="diag">    0.33    0.33</time>
   <time name="diis">    0.69    0.69</time>
   <time name="orth">    0.01    0.01</time>
   <time name="total">    1.28    1.28</time>
   <energy>
    <i name="e_fr_energy">    -30.05401303 </i>
    <i name="e_wo_entrp">    -30.05401303 </i>
    <i name="e_0_energy">    -30.05401303 </i>
   </energy>
  </scstep>
  <scstep>
   <time name="diag">    0.33    0.33</time>
   <time name="diis">    0.60    0.60</time>
   <time name="orth">    0.01    0.01</time>
   <time name="total">    1.19    1.20</time>
   <energy>
    <i name="e_fr_energy">    -30.05401285 </i>
    <i name="e_wo_entrp">    -30.05401285 </i>
    <i name="e_0_energy">    -30.05401285 </i>
   </energy>
  </scstep>
  <scstep>
   <time name="diag">    0.33    0.33</time>
   <time name="diis">    0.58    0.58</time>
   <time name="orth">    0.01    0.01</time>
   <time name="total">    1.04    1.04</time>
   <energy>
    <i name="alphaZ">    129.75634609 </i>
    <i name="ewald">  -1590.42496347 </i>
    <i name="hartreedc">  -1194.50455260 </i>
    <i name="XCdc">     70.75005907 </i>
    <i name="pawpsdc">   3887.78489433 </i>
    <i name="pawaedc">  -3811.02754501 </i>
    <i name="eentropy">      0.00000000 </i>
    <i name="bandstr">   -395.09734428 </i>
    <i name="atom">   2872.70909303 </i>
    <i name="e_fr_energy">    -30.05401283 </i>
    <i name="e_wo_entrp">    -30.05401283 </i>
    <i name="e_0_energy">    -30.05401283 </i>
   </energy>
  </scstep>
  <structure>
   <crystal>
    <varray name="basis" >
     <v>       3.88093345       0.00000246       0.00000193 </v>
     <v>      -1.94046510       3.36098852      -0.00000160 </v>
     <v>       0.00000555      -0.00000210      11.09871900 </v>
    </varray>
    <i name="volume">    144.76922175 </i>
    <varray name="rec_basis" >
     <v>       0.25766987       0.14876558      -0.00000010 </v>
     <v>      -0.00000019       0.29753140       0.00000006 </v>
     <v>      -0.00000004       0.00000002       0.09010049 </v>
    </varray>
   </crystal>
   <varray name="positions" >
    <v>       0.33333289       0.66666649       0.11780516 </v>
    <v>       0.66666672       0.33333326       0.88219479 </v>
    <v>      -0.00000022      -0.00000010      -0.00000003 </v>
    <v>       0.33333276       0.66666679       0.68714107 </v>
    <v>       0.66666786       0.33333356       0.31285901 </v>
   </varray>
  </structure>
  <varray name="forces" >
   <v>      -0.00000897       0.00000709       0.00518653 </v>
   <v>       0.00001113      -0.00000185      -0.00517696 </v>
   <v>       0.00000341      -0.00000063      -0.00000071 </v>
   <v>       0.00001055      -0.00000034       0.00942903 </v>
   <v>      -0.00001612      -0.00000428      -0.00943789 </v>
  </varray>
  <varray name="stress" >
   <v>       1.09569477      -0.00025143      -0.00065443 </v>
   <v>      -0.00025146       1.09490477       0.00012232 </v>
   <v>      -0.00065527       0.00012191       0.60223393 </v>
  </varray>
  <energy>
   <i name="e_fr_energy">    -30.05401283 </i>
   <i name="e_wo_entrp">    -30.05401283 </i>
   <i name="e_0_energy">      0.00000000 </i>
  </energy>
  <time name="totalsc">   11.48   11.53</time>
 </calculation>
 <calculation>
  <scstep>
   <time name="dav">    1.95    1.96</time>
   <time name="total">    2.19    2.20</time>
   <energy>
    <i name="alphaZ">    129.48051275 </i>
    <i name="ewald">  -1589.61181899 </i>
    <i name="hartreedc">  -1193.40891101 </i>
    <i name="XCdc">     70.67837926 </i>
    <i name="pawpsdc">   3887.76781104 </i>
    <i name="pawaedc">  -3811.01014065 </i>
    <i name="eentropy">      0.00000000 </i>
    <i name="bandstr">   -396.65979124 </i>
    <i name="atom">   2872.70909303 </i>
    <i name="e_fr_energy">    -30.05486581 </i>
    <i name="e_wo_entrp">    -30.05486581 </i>
    <i name="e_0_energy">    -30.05486581 </i>
   </energy>
  </scstep>
  <scstep>
   <time name="diag">    0.33    0.33</time>
   <time name="diis">    1.33    1.33</time>
   <time name="orth">    0.02    0.02</time>
   <time name="total">    1.91    1.92</time>
   <energy>
    <i name="e_fr_energy">    -30.05434871 </i>
    <i name="e_wo_entrp">    -30.05434871 </i>
    <i name="e_0_energy">    -30.05434871 </i>
   </energy>
  </scstep>
  <scstep>
   <time name="diag">    0.33    0.33</time>
   <time name="diis">    1.30    1.31</time>
   <time name="orth">    0.01    0.02</time>
   <time name="total">    1.89    1.90</time>
   <energy>
    <i name="e_fr_energy">    -30.05409556 </i>
    <i name="e_wo_entrp">    -30.05409556 </i>
    <i name="e_0_energy">    -30.05409556 </i>
   </energy>
  </scstep>
  <scstep>
   <time name="diag">    0.33    0.33</time>
   <time name="diis">    1.13    1.13</time>
   <time name="orth">    0.01    0.01</time>
   <time name="total">    1.72    1.72</time>
   <energy>
    <i name="e_fr_energy">    -30.05408878 </i>
    <i name="e_wo_entrp">    -30.05408878 </i>
    <i name="e_0_energy">    -30.05408878 </i>
   </energy>
  </scstep>
  <scstep>
   <time name="diag">    0.33    0.33</time>
   <time name="diis">    0.91    0.91</time>
   <time name="orth">    0.01    0.01</time>
   <time name="total">    1.50    1.51</time>
   <energy>
    <i name="e_fr_energy">    -30.05409246 </i>
    <i name="e_wo_entrp">    -30.05409246 </i>
    <i name="e_0_energy">    -30.05409246 </i>
   </energy>
  </scstep>
  <scstep>
   <time name="diag">    0.33    0.33</time>
   <time name="diis">    0.86    0.86</time>
   <time name="orth">    0.01    0.01</time>
   <time name="total">    1.32    1.33</time>
   <energy>
    <i name="alphaZ">    129.48051275 </i>
    <i name="ewald">  -1589.61181899 </i>
    <i name="hartreedc">  -1194.28737367 </i>
    <i name="XCdc">     70.72335710 </i>
    <i name="pawpsdc">   3877.95146739 </i>
    <i name="pawaedc">  -3801.18582449 </i>
    <i name="eentropy">      0.00000000 </i>
    <i name="bandstr">   -395.83349961 </i>
    <i name="atom">   2872.70909303 </i>
    <i name="e_fr_energy">    -30.05408649 </i>
    <i name="e_wo_entrp">    -30.05408649 </i>
    <i name="e_0_energy">    -30.05408649 </i>
   </energy>
  </scstep>
  <structure>
   <crystal>
    <varray name="basis" >
     <v>       3.88492939       0.00000193      -0.00000002 </v>
     <v>      -1.94246352       3.36444742      -0.00000035 </v>
     <v>      -0.00000004      -0.00000120      11.09950057 </v>
    </varray>
    <i name="volume">    145.07762474 </i>
    <varray name="rec_basis" >
     <v>       0.25740486       0.14861268       0.00000002 </v>
     <v>      -0.00000015       0.29722554       0.00000003 </v>
     <v>       0.00000000       0.00000001       0.09009414 </v>
    </varray>
   </crystal>
   <varray name="positions" >
    <v>       0.33333281       0.66666652       0.11777297 </v>
    <v>       0.66666681       0.33333327       0.88222701 </v>
    <v>      -0.00000021      -0.00000012      -0.00000003 </v>
    <v>       0.33333286       0.66666676       0.68719969 </v>
    <v>       0.66666774       0.33333357       0.31280036 </v>
   </varray>
  </structure>
  <varray name="forces" >
   <v>       0.00001340       0.00000538       0.00722016 </v>
   <v>      -0.00001068      -0.00000122      -0.00721915 </v>
   <v>       0.00000040      -0.00000071       0.00000064 </v>
   <v>       0.00000868       0.00000378       0.01802146 </v>
   <v>      -0.00001181      -0.00000723      -0.01802311 </v>
  </varray>
  <varray name="stress" >
   <v>      -0.00795529       0.00002760      -0.00047548 </v>
   <v>       0.00002819      -0.00853157      -0.00001199 </v>
   <v>      -0.00047493      -0.00001201       0.40394426 </v>
  </varray>
  <energy>
   <i name="e_fr_energy">    -30.05408649 </i>
   <i name="e_wo_entrp">    -30.05408649 </i>
   <i name="e_0_energy">      0.00000000 </i>
  </energy>
  <time name="totalsc">   13.48   13.53</time>
 </calculation>
 <calculation>
  <scstep>
   <time name="dav">    2.15    2.16</time>
   <time name="total">    2.40    2.41</time>
   <energy>
    <i name="alphaZ">    129.45345941 </i>
    <i name="ewald">  -1589.53197737 </i>
    <i name="hartreedc">  -1194.20273134 </i>
    <i name="XCdc">     70.71753487 </i>
    <i name="pawpsdc">   3877.62387927 </i>
    <i name="pawaedc">  -3800.85883283 </i>
    <i name="eentropy">      0.00000000 </i>
    <i name="bandstr">   -395.96451127 </i>
    <i name="atom">   2872.70909303 </i>
    <i name="e_fr_energy">    -30.05408623 </i>
    <i name="e_wo_entrp">    -30.05408623 </i>
    <i name="e_0_energy">    -30.05408623 </i>
   </energy>
  </scstep>
  <scstep>
   <time name="diag">    0.33    0.33</time>
   <time name="diis">    0.70    0.70</time>
   <time name="orth">    0.01    0.01</time>
   <time name="total">    1.29    1.29</time>
   <energy>
    <i name="e_fr_energy">    -30.05408179 </i>
    <i name="e_wo_entrp">    -30.05408179 </i>
    <i name="e_0_energy">    -30.05408179 </i>
   </energy>
  </scstep>
  <scstep>
   <time name="diag">    0.33    0.33</time>
   <time name="diis">    0.68    0.68</time>
   <time name="orth">    0.01    0.01</time>
   <time name="total">    1.27    1.27</time>
   <energy>
    <i name="e_fr_energy">    -30.05408031 </i>
    <i name="e_wo_entrp">    -30.05408031 </i>
    <i name="e_0_energy">    -30.05408031 </i>
   </energy>
  </scstep>
  <scstep>
   <time name="diag">    0.33    0.33</time>
   <time name="diis">    0.68    0.68</time>
   <time name="orth">    0.01    0.01</time>
   <time name="total">    1.27    1.27</time>
   <energy>
    <i name="e_fr_energy">    -30.05408072 </i>
    <i name="e_wo_entrp">    -30.05408072 </i>
    <i name="e_0_energy">    -30.05408072 </i>
   </energy>
  </scstep>
  <scstep>
   <time name="diag">    0.33    0.33</time>
   <time name="diis">    0.55    0.55</time>
   <time name="orth">    0.01    0.01</time>
   <time name="total">    1.14    1.15</time>
   <energy>
    <i name="e_fr_energy">    -30.05408049 </i>
    <i name="e_wo_entrp">    -30.05408049 </i>
    <i name="e_0_energy">    -30.05408049 </i>
   </energy>
  </scstep>
  <scstep>
   <time name="diag">    0.33    0.33</time>
   <time name="diis">    0.57    0.57</time>
   <time name="orth">    0.01    0.01</time>
   <time name="total">    1.03    1.04</time>
   <energy>
    <i name="alphaZ">    129.45345941 </i>
    <i name="ewald">  -1589.53197737 </i>
    <i name="hartreedc">  -1194.27215717 </i>
    <i name="XCdc">     70.72158104 </i>
    <i name="pawpsdc">   3876.16776204 </i>
    <i name="pawaedc">  -3799.41879744 </i>
    <i name="eentropy">      0.00000000 </i>
    <i name="bandstr">   -395.88304388 </i>
    <i name="atom">   2872.70909303 </i>
    <i name="e_fr_energy">    -30.05408034 </i>
    <i name="e_wo_entrp">    -30.05408034 </i>
    <i name="e_0_energy">    -30.05408034 </i>
   </energy>
  </scstep>
  <structure>
   <crystal>
    <varray name="basis" >
     <v>       3.88532197       0.00000188      -0.00000021 </v>
     <v>      -1.94265986       3.36478724      -0.00000023 </v>
     <v>      -0.00000059      -0.00000111      11.09957736 </v>
    </varray>
    <i name="volume">    145.10794323 </i>
    <varray name="rec_basis" >
     <v>       0.25737886       0.14859768       0.00000003 </v>
     <v>      -0.00000014       0.29719553       0.00000003 </v>
     <v>       0.00000000       0.00000001       0.09009352 </v>
    </varray>
   </crystal>
   <varray name="positions" >
    <v>       0.33333281       0.66666653       0.11776981 </v>
    <v>       0.66666681       0.33333327       0.88223018 </v>
    <v>      -0.00000021      -0.00000012      -0.00000003 </v>
    <v>       0.33333287       0.66666675       0.68720545 </v>
    <v>       0.66666773       0.33333357       0.31279460 </v>
   </varray>
  </structure>
  <varray name="forces" >
   <v>       0.00000679      -0.00000324       0.00788831 </v>
   <v>      -0.00000448       0.00000428      -0.00788651 </v>
   <v>       0.00000183       0.00000242       0.00000142 </v>
   <v>       0.00000459      -0.00000204       0.01761511 </v>
   <v>      -0.00000873      -0.00000143      -0.01761833 </v>
  </varray>
  <varray name="stress" >
   <v>      -0.54578984      -0.00009640      -0.00014311 </v>
   <v>      -0.00009669      -0.54599654       0.00000913 </v>
   <v>      -0.00014309       0.00000950       0.08215096 </v>
  </varray>
  <energy>
   <i name="e_fr_energy">    -30.05408034 </i>
   <i name="e_wo_entrp">    -30.05408034 </i>
   <i name="e_0_energy">      0.00000000 </i>
  </energy>
  <time name="totalsc">   11.14   11.18</time>
  <eigenvalues>
   <array>
    <dimension dim="1">band</dimension>
    <dimension dim="2">kpoint</dimension>
    <dimension dim="3">spin</dimension>
    <field>eigene</field>
    <field>occ</field>
    <set>
     <set comment="spin 1">
      <set comment="kpoint 1">
       <r>  -38.4689    1.0000 </r>
       <r>  -38.4156    1.0000 </r>
       <r>  -18.7129    1.0000 </r>
       <r>  -18.3686    1.0000 </r>
       <r>  -18.3686    1.0000 </r>
       <r>  -18.3491    1.0000 </r>
       <r>  -18.2963    1.0000 </r>
       <r>  -18.2963    1.0000 </r>
       <r>   -9.4773    1.0000 </r>
       <r>   -9.3776    1.0000 </r>
       <r>   -4.8963    1.0000 </r>
       <r>   -0.2249    1.0000 </r>
       <r>   -0.0185    1.0000 </r>
       <r>    2.0409    1.0000 </r>
       <r>    2.0409    1.0000 </r>
       <r>    2.5107    1.0000 </r>
       <r>    2.5823    1.0000 </r>
       <r>    2.5823    1.0000 </r>
       <r>    3.3738    1.0000 </r>
       <r>    3.3738    1.0000 </r>
       <r>    5.6850    0.0000 </r>
       <r>    5.6851    0.0000 </r>
       <r>    6.0248    0.0000 </r>
       <r>    6.9227    0.0000 </r>
       <r>    7.0223    0.0000 </r>
       <r>    7.5210    0.0000 </r>
      </set>
      <set comment="kpoint 2">
       <r>  -38.4538    1.0000 </r>
       <r>  -38.4140    1.0000 </r>
       <r>  -18.6723    1.0000 </r>
       <r>  -18.5379    1.0000 </r>
       <r>  -18.4140    1.0000 </r>
       <r>  -18.3908    1.0000 </r>
       <r>  -18.3163    1.0000 </r>
       <r>  -18.3048    1.0000 </r>
       <r>   -9.1459    1.0000 </r>
       <r>   -9.0836    1.0000 </r>
       <r>   -4.6450    1.0000 </r>
       <r>   -0.0220    1.0000 </r>
       <r>    0.3302    1.0000 </r>
       <r>    0.6610    1.0000 </r>
       <r>    0.7720    1.0000 </r>
       <r>    1.9992    1.0000 </r>
       <r>    2.1330    1.0000 </r>
       <r>    2.3141    1.0000 </r>
       <r>    2.5938    1.0000 </r>
       <r>    2.9741    1.0000 </r>
       <r>    4.6130    0.0000 </r>
       <r>    6.3805    0.0000 </r>
       <r>    6.5835    0.0000 </r>
       <r>    6.9706    0.0000 </r>
       <r>    7.3475    0.0000 </r>
       <r>    7.7430    0.0000 </r>
      </set>
      <set comment="kpoint 3">
       <r>  -38.4343    1.0000 </r>
       <r>  -38.4167    1.0000 </r>
       <r>  -18.6896    1.0000 </r>
       <r>  -18.6436    1.0000 </r>
       <r>  -18.4542    1.0000 </r>
       <r>  -18.4127    1.0000 </r>
       <r>  -18.3532    1.0000 </r>
       <r>  -18.3181    1.0000 </r>
       <r>   -8.7668    1.0000 </r>
       <r>   -8.7521    1.0000 </r>
       <r>   -4.4036    1.0000 </r>
       <r>   -0.8441    1.0000 </r>
       <r>   -0.7131    1.0000 </r>
       <r>    0.4753    1.0000 </r>
       <r>    0.8508    1.0000 </r>
       <r>    1.6280    1.0000 </r>
       <r>    1.8300    1.0000 </r>
       <r>    1.8833    1.0000 </r>
       <r>    2.8662    1.0000 </r>
       <r>    3.0027    1.0000 </r>
       <r>    3.8892    0.0000 </r>
       <r>    7.0780    0.0000 </r>
       <r>    7.5255    0.0000 </r>
       <r>    7.7968    0.0000 </r>
       <r>    7.8571    0.0000 </r>
       <r>    7.9785    0.0000 </r>
      </set>
      <set comment="kpoint 4">
       <r>  -38.4538    1.0000 </r>
       <r>  -38.4140    1.0000 </r>
       <r>  -18.6723    1.0000 </r>
       <r>  -18.5379    1.0000 </r>
       <r>  -18.4140    1.0000 </r>
       <r>  -18.3908    1.0000 </r>
       <r>  -18.3163    1.0000 </r>
       <r>  -18.3048    1.0000 </r>
       <r>   -9.1459    1.0000 </r>
       <r>   -9.0836    1.0000 </r>
       <r>   -4.6450    1.0000 </r>
       <r>   -0.0220    1.0000 </r>
       <r>    0.3302    1.0000 </r>
       <r>    0.6610    1.0000 </r>
       <r>    0.7720    1.0000 </r>
       <r>    1.9992    1.0000 </r>
       <r>    2.1330    1.0000 </r>
       <r>    2.3141    1.0000 </r>
       <r>    2.5938    1.0000 </r>
       <r>    2.9741    1.0000 </r>
       <r>    4.6130    0.0000 </r>
       <r>    6.3805    0.0000 </r>
       <r>    6.5835    0.0000 </r>
       <r>    6.9706    0.0000 </r>
       <r>    7.3475    0.0000 </r>
       <r>    7.7431    0.0000 </r>
      </set>
      <set comment="kpoint 5">
       <r>  -38.4344    1.0000 </r>
       <r>  -38.4167    1.0000 </r>
       <r>  -18.6513    1.0000 </r>
       <r>  -18.6045    1.0000 </r>
       <r>  -18.5362    1.0000 </r>
       <r>  -18.3795    1.0000 </r>
       <r>  -18.3760    1.0000 </r>
       <r>  -18.3275    1.0000 </r>
       <r>   -8.7734    1.0000 </r>
       <r>   -8.7502    1.0000 </r>
       <r>   -4.4058    1.0000 </r>
       <r>   -0.2827    1.0000 </r>
       <r>   -0.2386    1.0000 </r>
       <r>    0.5110    1.0000 </r>
       <r>    0.7950    1.0000 </r>
       <r>    0.7999    1.0000 </r>
       <r>    0.9066    1.0000 </r>
       <r>    2.0917    1.0000 </r>
       <r>    2.4589    1.0000 </r>
       <r>    2.8629    1.0000 </r>
       <r>    5.3378    0.0000 </r>
       <r>    5.6132    0.0000 </r>
       <r>    7.3043    0.0000 </r>
       <r>    7.6808    0.0000 </r>
       <r>    7.7885    0.0000 </r>
       <r>    8.5812    0.0000 </r>
      </set>
      <set comment="kpoint 6">
       <r>  -38.4344    1.0000 </r>
       <r>  -38.4167    1.0000 </r>
       <r>  -18.6513    1.0000 </r>
       <r>  -18.6045    1.0000 </r>
       <r>  -18.5362    1.0000 </r>
       <r>  -18.3795    1.0000 </r>
       <r>  -18.3760    1.0000 </r>
       <r>  -18.3275    1.0000 </r>
       <r>   -8.7734    1.0000 </r>
       <r>   -8.7502    1.0000 </r>
       <r>   -4.4058    1.0000 </r>
       <r>   -0.2827    1.0000 </r>
       <r>   -0.2386    1.0000 </r>
       <r>    0.5110    1.0000 </r>
       <r>    0.7950    1.0000 </r>
       <r>    0.7999    1.0000 </r>
       <r>    0.9066    1.0000 </r>
       <r>    2.0917    1.0000 </r>
       <r>    2.4589    1.0000 </r>
       <r>    2.8629    1.0000 </r>
       <r>    5.3378    0.0000 </r>
       <r>    5.6132    0.0000 </r>
       <r>    7.3043    0.0000 </r>
       <r>    7.6808    0.0000 </r>
       <r>    7.7885    0.0000 </r>
       <r>    8.5779    0.0000 </r>
      </set>
      <set comment="kpoint 7">
       <r>  -38.4538    1.0000 </r>
       <r>  -38.4140    1.0000 </r>
       <r>  -18.6723    1.0000 </r>
       <r>  -18.5379    1.0000 </r>
       <r>  -18.4140    1.0000 </r>
       <r>  -18.3908    1.0000 </r>
       <r>  -18.3163    1.0000 </r>
       <r>  -18.3048    1.0000 </r>
       <r>   -9.1459    1.0000 </r>
       <r>   -9.0836    1.0000 </r>
       <r>   -4.6450    1.0000 </r>
       <r>   -0.0220    1.0000 </r>
       <r>    0.3302    1.0000 </r>
       <r>    0.6610    1.0000 </r>
       <r>    0.7720    1.0000 </r>
       <r>    1.9992    1.0000 </r>
       <r>    2.1329    1.0000 </r>
       <r>    2.3141    1.0000 </r>
       <r>    2.5938    1.0000 </r>
       <r>    2.9741    1.0000 </r>
       <r>    4.6130    0.0000 </r>
       <r>    6.3805    0.0000 </r>
       <r>    6.5835    0.0000 </r>
       <r>    6.9706    0.0000 </r>
       <r>    7.3475    0.0000 </r>
       <r>    7.7430    0.0000 </r>
      </set>
      <set comment="kpoint 8">
       <r>  -38.4343    1.0000 </r>
       <r>  -38.4167    1.0000 </r>
       <r>  -18.6896    1.0000 </r>
       <r>  -18.6436    1.0000 </r>
       <r>  -18.4542    1.0000 </r>
       <r>  -18.4127    1.0000 </r>
       <r>  -18.3532    1.0000 </r>
       <r>  -18.3181    1.0000 </r>
       <r>   -8.7668    1.0000 </r>
       <r>   -8.7521    1.0000 </r>
       <r>   -4.4036    1.0000 </r>
       <r>   -0.8441    1.0000 </r>
       <r>   -0.7131    1.0000 </r>
       <r>    0.4753    1.0000 </r>
       <r>    0.8508    1.0000 </r>
       <r>    1.6280    1.0000 </r>
       <r>    1.8300    1.0000 </r>
       <r>    1.8833    1.0000 </r>
       <r>    2.8662    1.0000 </r>
       <r>    3.0027    1.0000 </r>
       <r>    3.8892    0.0000 </r>
       <r>    7.0780    0.0000 </r>
       <r>    7.5255    0.0000 </r>
       <r>    7.7968    0.0000 </r>
       <r>    7.8571    0.0000 </r>
       <r>    7.9785    0.0000 </r>
      </set>
      <set comment="kpoint 9">
       <r>  -38.4344    1.0000 </r>
       <r>  -38.4167    1.0000 </r>
       <r>  -18.6513    1.0000 </r>
       <r>  -18.6045    1.0000 </r>
       <r>  -18.5362    1.0000 </r>
       <r>  -18.3795    1.0000 </r>
       <r>  -18.3760    1.0000 </r>
       <r>  -18.3275    1.0000 </r>
       <r>   -8.7734    1.0000 </r>
       <r>   -8.7502    1.0000 </r>
       <r>   -4.4058    1.0000 </r>
       <r>   -0.2827    1.0000 </r>
       <r>   -0.2386    1.0000 </r>
       <r>    0.5110    1.0000 </r>
       <r>    0.7950    1.0000 </r>
       <r>    0.7999    1.0000 </r>
       <r>    0.9066    1.0000 </r>
       <r>    2.0917    1.0000 </r>
       <r>    2.4589    1.0000 </r>
       <r>    2.8629    1.0000 </r>
       <r>    5.3378    0.0000 </r>
       <r>    5.6132    0.0000 </r>
       <r>    7.3043    0.0000 </r>
       <r>    7.6808    0.0000 </r>
       <r>    7.7885    0.0000 </r>
       <r>    8.5844    0.0000 </r>
      </set>
      <set comment="kpoint 10">
       <r>  -38.4343    1.0000 </r>
       <r>  -38.4167    1.0000 </r>
       <r>  -18.6896    1.0000 </r>
       <r>  -18.6436    1.0000 </r>
       <r>  -18.4542    1.0000 </r>
       <r>  -18.4127    1.0000 </r>
       <r>  -18.3532    1.0000 </r>
       <r>  -18.3181    1.0000 </r>
       <r>   -8.7668    1.0000 </r>
       <r>   -8.7521    1.0000 </r>
       <r>   -4.4036    1.0000 </r>
       <r>   -0.8441    1.0000 </r>
       <r>   -0.7131    1.0000 </r>
       <r>    0.4753    1.0000 </r>
       <r>    0.8508    1.0000 </r>
       <r>    1.6280    1.0000 </r>
       <r>    1.8299    1.0000 </r>
       <r>    1.8833    1.0000 </r>
       <r>    2.8662    1.0000 </r>
       <r>    3.0027    1.0000 </r>
       <r>    3.8892    0.0000 </r>
       <r>    7.0780    0.0000 </r>
       <r>    7.5255    0.0000 </r>
       <r>    7.7968    0.0000 </r>
       <r>    7.8571    0.0000 </r>
       <r>    7.9785    0.0000 </r>
      </set>
      <set comment="kpoint 11">
       <r>  -38.4689    1.0000 </r>
       <r>  -38.4156    1.0000 </r>
       <r>  -18.7129    1.0000 </r>
       <r>  -18.3686    1.0000 </r>
       <r>  -18.3686    1.0000 </r>
       <r>  -18.3491    1.0000 </r>
       <r>  -18.2963    1.0000 </r>
       <r>  -18.2963    1.0000 </r>
       <r>   -9.4433    1.0000 </r>
       <r>   -9.4130    1.0000 </r>
       <r>   -4.8877    1.0000 </r>
       <r>   -0.6022    1.0000 </r>
       <r>    0.5889    1.0000 </r>
       <r>    2.0307    1.0000 </r>
       <r>    2.0307    1.0000 </r>
       <r>    2.1233    1.0000 </r>
       <r>    2.6097    1.0000 </r>
       <r>    2.6097    1.0000 </r>
       <r>    3.3515    1.0000 </r>
       <r>    3.3515    1.0000 </r>
       <r>    5.6869    0.0000 </r>
       <r>    5.6869    0.0000 </r>
       <r>    6.1664    0.0000 </r>
       <r>    6.9407    0.0000 </r>
       <r>    7.5334    0.0000 </r>
       <r>    7.6618    0.0000 </r>
      </set>
      <set comment="kpoint 12">
       <r>  -38.4538    1.0000 </r>
       <r>  -38.4141    1.0000 </r>
       <r>  -18.6723    1.0000 </r>
       <r>  -18.5379    1.0000 </r>
       <r>  -18.4140    1.0000 </r>
       <r>  -18.3908    1.0000 </r>
       <r>  -18.3163    1.0000 </r>
       <r>  -18.3048    1.0000 </r>
       <r>   -9.1361    1.0000 </r>
       <r>   -9.0937    1.0000 </r>
       <r>   -4.6439    1.0000 </r>
       <r>   -0.0412    1.0000 </r>
       <r>    0.4074    1.0000 </r>
       <r>    0.6166    1.0000 </r>
       <r>    0.7322    1.0000 </r>
       <r>    1.9763    1.0000 </r>
       <r>    2.1646    1.0000 </r>
       <r>    2.4380    1.0000 </r>
       <r>    2.5198    1.0000 </r>
       <r>    2.9633    1.0000 </r>
       <r>    4.5667    0.0000 </r>
       <r>    6.2643    0.0000 </r>
       <r>    6.5740    0.0000 </r>
       <r>    7.1620    0.0000 </r>
       <r>    7.3499    0.0000 </r>
       <r>    7.7893    0.0000 </r>
      </set>
      <set comment="kpoint 13">
       <r>  -38.4343    1.0000 </r>
       <r>  -38.4167    1.0000 </r>
       <r>  -18.6896    1.0000 </r>
       <r>  -18.6436    1.0000 </r>
       <r>  -18.4542    1.0000 </r>
       <r>  -18.4127    1.0000 </r>
       <r>  -18.3532    1.0000 </r>
       <r>  -18.3181    1.0000 </r>
       <r>   -8.7734    1.0000 </r>
       <r>   -8.7455    1.0000 </r>
       <r>   -4.4037    1.0000 </r>
       <r>   -0.9020    1.0000 </r>
       <r>   -0.6754    1.0000 </r>
       <r>    0.6943    1.0000 </r>
       <r>    0.7011    1.0000 </r>
       <r>    1.6790    1.0000 </r>
       <r>    1.7671    1.0000 </r>
       <r>    1.8088    1.0000 </r>
       <r>    2.8559    1.0000 </r>
       <r>    3.0190    1.0000 </r>
       <r>    3.9168    0.0000 </r>
       <r>    7.0609    0.0000 </r>
       <r>    7.2486    0.0000 </r>
       <r>    7.6568    0.0000 </r>
       <r>    7.8697    0.0000 </r>
       <r>    8.2402    0.0000 </r>
      </set>
      <set comment="kpoint 14">
       <r>  -38.4538    1.0000 </r>
       <r>  -38.4141    1.0000 </r>
       <r>  -18.6723    1.0000 </r>
       <r>  -18.5379    1.0000 </r>
       <r>  -18.4140    1.0000 </r>
       <r>  -18.3908    1.0000 </r>
       <r>  -18.3163    1.0000 </r>
       <r>  -18.3048    1.0000 </r>
       <r>   -9.1361    1.0000 </r>
       <r>   -9.0937    1.0000 </r>
       <r>   -4.6439    1.0000 </r>
       <r>   -0.0412    1.0000 </r>
       <r>    0.4074    1.0000 </r>
       <r>    0.6166    1.0000 </r>
       <r>    0.7322    1.0000 </r>
       <r>    1.9763    1.0000 </r>
       <r>    2.1646    1.0000 </r>
       <r>    2.4380    1.0000 </r>
       <r>    2.5198    1.0000 </r>
       <r>    2.9633    1.0000 </r>
       <r>    4.5667    0.0000 </r>
       <r>    6.2643    0.0000 </r>
       <r>    6.5740    0.0000 </r>
       <r>    7.1620    0.0000 </r>
       <r>    7.3499    0.0000 </r>
       <r>    7.7893    0.0000 </r>
      </set>
      <set comment="kpoint 15">
       <r>  -38.4344    1.0000 </r>
       <r>  -38.4167    1.0000 </r>
       <r>  -18.6513    1.0000 </r>
       <r>  -18.6045    1.0000 </r>
       <r>  -18.5362    1.0000 </r>
       <r>  -18.3795    1.0000 </r>
       <r>  -18.3760    1.0000 </r>
       <r>  -18.3275    1.0000 </r>
       <r>   -8.7751    1.0000 </r>
       <r>   -8.7485    1.0000 </r>
       <r>   -4.4058    1.0000 </r>
       <r>   -0.2721    1.0000 </r>
       <r>   -0.2695    1.0000 </r>
       <r>    0.5687    1.0000 </r>
       <r>    0.6917    1.0000 </r>
       <r>    0.8968    1.0000 </r>
       <r>    0.9034    1.0000 </r>
       <r>    2.0550    1.0000 </r>
       <r>    2.4707    1.0000 </r>
       <r>    2.8606    1.0000 </r>
       <r>    5.2105    0.0000 </r>
       <r>    5.7256    0.0000 </r>
       <r>    7.4417    0.0000 </r>
       <r>    7.5546    0.0000 </r>
       <r>    7.8096    0.0000 </r>
       <r>    8.4572    0.0000 </r>
      </set>
      <set comment="kpoint 16">
       <r>  -38.4344    1.0000 </r>
       <r>  -38.4167    1.0000 </r>
       <r>  -18.6513    1.0000 </r>
       <r>  -18.6045    1.0000 </r>
       <r>  -18.5362    1.0000 </r>
       <r>  -18.3795    1.0000 </r>
       <r>  -18.3760    1.0000 </r>
       <r>  -18.3275    1.0000 </r>
       <r>   -8.7751    1.0000 </r>
       <r>   -8.7485    1.0000 </r>
       <r>   -4.4058    1.0000 </r>
       <r>   -0.2721    1.0000 </r>
       <r>   -0.2695    1.0000 </r>
       <r>    0.5687    1.0000 </r>
       <r>    0.6917    1.0000 </r>
       <r>    0.8968    1.0000 </r>
       <r>    0.9034    1.0000 </r>
       <r>    2.0550    1.0000 </r>
       <r>    2.4707    1.0000 </r>
       <r>    2.8606    1.0000 </r>
       <r>    5.2105    0.0000 </r>
       <r>    5.7256    0.0000 </r>
       <r>    7.4417    0.0000 </r>
       <r>    7.5546    0.0000 </r>
       <r>    7.8096    0.0000 </r>
       <r>    8.4572    0.0000 </r>
      </set>
      <set comment="kpoint 17">
       <r>  -38.4538    1.0000 </r>
       <r>  -38.4141    1.0000 </r>
       <r>  -18.6723    1.0000 </r>
       <r>  -18.5379    1.0000 </r>
       <r>  -18.4140    1.0000 </r>
       <r>  -18.3908    1.0000 </r>
       <r>  -18.3163    1.0000 </r>
       <r>  -18.3048    1.0000 </r>
       <r>   -9.1361    1.0000 </r>
       <r>   -9.0937    1.0000 </r>
       <r>   -4.6439    1.0000 </r>
       <r>   -0.0412    1.0000 </r>
       <r>    0.4074    1.0000 </r>
       <r>    0.6166    1.0000 </r>
       <r>    0.7322    1.0000 </r>
       <r>    1.9762    1.0000 </r>
       <r>    2.1646    1.0000 </r>
       <r>    2.4380    1.0000 </r>
       <r>    2.5198    1.0000 </r>
       <r>    2.9633    1.0000 </r>
       <r>    4.5667    0.0000 </r>
       <r>    6.2643    0.0000 </r>
       <r>    6.5740    0.0000 </r>
       <r>    7.1620    0.0000 </r>
       <r>    7.3499    0.0000 </r>
       <r>    7.7891    0.0000 </r>
      </set>
      <set comment="kpoint 18">
       <r>  -38.4343    1.0000 </r>
       <r>  -38.4167    1.0000 </r>
       <r>  -18.6896    1.0000 </r>
       <r>  -18.6436    1.0000 </r>
       <r>  -18.4542    1.0000 </r>
       <r>  -18.4127    1.0000 </r>
       <r>  -18.3532    1.0000 </r>
       <r>  -18.3181    1.0000 </r>
       <r>   -8.7734    1.0000 </r>
       <r>   -8.7455    1.0000 </r>
       <r>   -4.4037    1.0000 </r>
       <r>   -0.9020    1.0000 </r>
       <r>   -0.6754    1.0000 </r>
       <r>    0.6943    1.0000 </r>
       <r>    0.7011    1.0000 </r>
       <r>    1.6790    1.0000 </r>
       <r>    1.7671    1.0000 </r>
       <r>    1.8088    1.0000 </r>
       <r>    2.8559    1.0000 </r>
       <r>    3.0190    1.0000 </r>
       <r>    3.9168    0.0000 </r>
       <r>    7.0609    0.0000 </r>
       <r>    7.2486    0.0000 </r>
       <r>    7.6568    0.0000 </r>
       <r>    7.8697    0.0000 </r>
       <r>    8.2398    0.0000 </r>
      </set>
      <set comment="kpoint 19">
       <r>  -38.4344    1.0000 </r>
       <r>  -38.4167    1.0000 </r>
       <r>  -18.6513    1.0000 </r>
       <r>  -18.6045    1.0000 </r>
       <r>  -18.5362    1.0000 </r>
       <r>  -18.3795    1.0000 </r>
       <r>  -18.3760    1.0000 </r>
       <r>  -18.3275    1.0000 </r>
       <r>   -8.7751    1.0000 </r>
       <r>   -8.7485    1.0000 </r>
       <r>   -4.4058    1.0000 </r>
       <r>   -0.2721    1.0000 </r>
       <r>   -0.2695    1.0000 </r>
       <r>    0.5687    1.0000 </r>
       <r>    0.6917    1.0000 </r>
       <r>    0.8968    1.0000 </r>
       <r>    0.9034    1.0000 </r>
       <r>    2.0550    1.0000 </r>
       <r>    2.4707    1.0000 </r>
       <r>    2.8606    1.0000 </r>
       <r>    5.2105    0.0000 </r>
       <r>    5.7256    0.0000 </r>
       <r>    7.4417    0.0000 </r>
       <r>    7.5546    0.0000 </r>
       <r>    7.8096    0.0000 </r>
       <r>    8.4571    0.0000 </r>
      </set>
      <set comment="kpoint 20">
       <r>  -38.4343    1.0000 </r>
       <r>  -38.4167    1.0000 </r>
       <r>  -18.6896    1.0000 </r>
       <r>  -18.6436    1.0000 </r>
       <r>  -18.4542    1.0000 </r>
       <r>  -18.4127    1.0000 </r>
       <r>  -18.3532    1.0000 </r>
       <r>  -18.3181    1.0000 </r>
       <r>   -8.7734    1.0000 </r>
       <r>   -8.7455    1.0000 </r>
       <r>   -4.4037    1.0000 </r>
       <r>   -0.9020    1.0000 </r>
       <r>   -0.6754    1.0000 </r>
       <r>    0.6943    1.0000 </r>
       <r>    0.7011    1.0000 </r>
       <r>    1.6789    1.0000 </r>
       <r>    1.7670    1.0000 </r>
       <r>    1.8088    1.0000 </r>
       <r>    2.8559    1.0000 </r>
       <r>    3.0190    1.0000 </r>
       <r>    3.9168    0.0000 </r>
       <r>    7.0609    0.0000 </r>
       <r>    7.2486    0.0000 </r>
       <r>    7.6568    0.0000 </r>
       <r>    7.8697    0.0000 </r>
       <r>    8.2403    0.0000 </r>
      </set>
     </set>
     <set comment="spin 2">
      <set comment="kpoint 1">
       <r>  -38.4689    1.0000 </r>
       <r>  -38.4156    1.0000 </r>
       <r>  -18.7129    1.0000 </r>
       <r>  -18.3686    1.0000 </r>
       <r>  -18.3686    1.0000 </r>
       <r>  -18.3491    1.0000 </r>
       <r>  -18.2963    1.0000 </r>
       <r>  -18.2963    1.0000 </r>
       <r>   -9.4773    1.0000 </r>
       <r>   -9.3776    1.0000 </r>
       <r>   -4.8963    1.0000 </r>
       <r>   -0.2249    1.0000 </r>
       <r>   -0.0185    1.0000 </r>
       <r>    2.0409    1.0000 </r>
       <r>    2.0409    1.0000 </r>
       <r>    2.5107    1.0000 </r>
       <r>    2.5823    1.0000 </r>
       <r>    2.5823    1.0000 </r>
       <r>    3.3738    1.0000 </r>
       <r>    3.3738    1.0000 </r>
       <r>    5.6850    0.0000 </r>
       <r>    5.6851    0.0000 </r>
       <r>    6.0248    0.0000 </r>
       <r>    6.9227    0.0000 </r>
       <r>    7.0223    0.0000 </r>
       <r>    7.5210    0.0000 </r>
      </set>
      <set comment="kpoint 2">
       <r>  -38.4538    1.0000 </r>
       <r>  -38.4140    1.0000 </r>
       <r>  -18.6723    1.0000 </r>
       <r>  -18.5379    1.0000 </r>
       <r>  -18.4140    1.0000 </r>
       <r>  -18.3908    1.0000 </r>
       <r>  -18.3163    1.0000 </r>
       <r>  -18.3048    1.0000 </r>
       <r>   -9.1459    1.0000 </r>
       <r>   -9.0836    1.0000 </r>
       <r>   -4.6450    1.0000 </r>
       <r>   -0.0220    1.0000 </r>
       <r>    0.3302    1.0000 </r>
       <r>    0.6610    1.0000 </r>
       <r>    0.7720    1.0000 </r>
       <r>    1.9992    1.0000 </r>
       <r>    2.1330    1.0000 </r>
       <r>    2.3141    1.0000 </r>
       <r>    2.5938    1.0000 </r>
       <r>    2.9741    1.0000 </r>
       <r>    4.6130    0.0000 </r>
       <r>    6.3805    0.0000 </r>
       <r>    6.5835    0.0000 </r>
       <r>    6.9706    0.0000 </r>
       <r>    7.3475    0.0000 </r>
       <r>    7.7430    0.0000 </r>
      </set>
      <set comment="kpoint 3">
       <r>  -38.4343    1.0000 </r>
       <r>  -38.4167    1.0000 </r>
       <r>  -18.6896    1.0000 </r>
       <r>  -18.6436    1.0000 </r>
       <r>  -18.4542    1.0000 </r>
       <r>  -18.4127    1.0000 </r>
       <r>  -18.3532    1.0000 </r>
       <r>  -18.3181    1.0000 </r>
       <r>   -8.7668    1.0000 </r>
       <r>   -8.7521    1.0000 </r>
       <r>   -4.4036    1.0000 </r>
       <r>   -0.8441    1.0000 </r>
       <r>   -0.7131    1.0000 </r>
       <r>    0.4753    1.0000 </r>
       <r>    0.8508    1.0000 </r>
       <r>    1.6280    1.0000 </r>
       <r>    1.8300    1.0000 </r>
       <r>    1.8833    1.0000 </r>
       <r>    2.8662    1.0000 </r>
       <r>    3.0027    1.0000 </r>
       <r>    3.8892    0.0000 </r>
       <r>    7.0780    0.0000 </r>
       <r>    7.5255    0.0000 </r>
       <r>    7.7968    0.0000 </r>
       <r>    7.8571    0.0000 </r>
       <r>    7.9785    0.0000 </r>
      </set>
      <set comment="kpoint 4">
       <r>  -38.4538    1.0000 </r>
       <r>  -38.4140    1.0000 </r>
       <r>  -18.6723    1.0000 </r>
       <r>  -18.5379    1.0000 </r>
       <r>  -18.4140    1.0000 </r>
       <r>  -18.3908    1.0000 </r>
       <r>  -18.3163    1.0000 </r>
       <r>  -18.3048    1.0000 </r>
       <r>   -9.1459    1.0000 </r>
       <r>   -9.0836    1.0000 </r>
       <r>   -4.6450    1.0000 </r>
       <r>   -0.0220    1.0000 </r>
       <r>    0.3302    1.0000 </r>
       <r>    0.6610    1.0000 </r>
       <r>    0.7720    1.0000 </r>
       <r>    1.9992    1.0000 </r>
       <r>    2.1330    1.0000 </r>
       <r>    2.3141    1.0000 </r>
       <r>    2.5938    1.0000 </r>
       <r>    2.9741    1.0000 </r>
       <r>    4.6130    0.0000 </r>
       <r>    6.3805    0.0000 </r>
       <r>    6.5835    0.0000 </r>
       <r>    6.9706    0.0000 </r>
       <r>    7.3475    0.0000 </r>
       <r>    7.7430    0.0000 </r>
      </set>
      <set comment="kpoint 5">
       <r>  -38.4344    1.0000 </r>
       <r>  -38.4167    1.0000 </r>
       <r>  -18.6513    1.0000 </r>
       <r>  -18.6045    1.0000 </r>
       <r>  -18.5361    1.0000 </r>
       <r>  -18.3795    1.0000 </r>
       <r>  -18.3760    1.0000 </r>
       <r>  -18.3275    1.0000 </r>
       <r>   -8.7734    1.0000 </r>
       <r>   -8.7502    1.0000 </r>
       <r>   -4.4058    1.0000 </r>
       <r>   -0.2827    1.0000 </r>
       <r>   -0.2386    1.0000 </r>
       <r>    0.5110    1.0000 </r>
       <r>    0.7950    1.0000 </r>
       <r>    0.7999    1.0000 </r>
       <r>    0.9066    1.0000 </r>
       <r>    2.0917    1.0000 </r>
       <r>    2.4589    1.0000 </r>
       <r>    2.8629    1.0000 </r>
       <r>    5.3378    0.0000 </r>
       <r>    5.6132    0.0000 </r>
       <r>    7.3043    0.0000 </r>
       <r>    7.6808    0.0000 </r>
       <r>    7.7885    0.0000 </r>
       <r>    8.5780    0.0000 </r>
      </set>
      <set comment="kpoint 6">
       <r>  -38.4344    1.0000 </r>
       <r>  -38.4167    1.0000 </r>
       <r>  -18.6513    1.0000 </r>
       <r>  -18.6045    1.0000 </r>
       <r>  -18.5361    1.0000 </r>
       <r>  -18.3795    1.0000 </r>
       <r>  -18.3760    1.0000 </r>
       <r>  -18.3275    1.0000 </r>
       <r>   -8.7734    1.0000 </r>
       <r>   -8.7502    1.0000 </r>
       <r>   -4.4058    1.0000 </r>
       <r>   -0.2827    1.0000 </r>
       <r>   -0.2386    1.0000 </r>
       <r>    0.5110    1.0000 </r>
       <r>    0.7950    1.0000 </r>
       <r>    0.7999    1.0000 </r>
       <r>    0.9066    1.0000 </r>
       <r>    2.0917    1.0000 </r>
       <r>    2.4589    1.0000 </r>
       <r>    2.8629    1.0000 </r>
       <r>    5.3378    0.0000 </r>
       <r>    5.6132    0.0000 </r>
       <r>    7.3043    0.0000 </r>
       <r>    7.6808    0.0000 </r>
       <r>    7.7885    0.0000 </r>
       <r>    8.5799    0.0000 </r>
      </set>
      <set comment="kpoint 7">
       <r>  -38.4538    1.0000 </r>
       <r>  -38.4140    1.0000 </r>
       <r>  -18.6723    1.0000 </r>
       <r>  -18.5379    1.0000 </r>
       <r>  -18.4140    1.0000 </r>
       <r>  -18.3908    1.0000 </r>
       <r>  -18.3163    1.0000 </r>
       <r>  -18.3048    1.0000 </r>
       <r>   -9.1459    1.0000 </r>
       <r>   -9.0836    1.0000 </r>
       <r>   -4.6450    1.0000 </r>
       <r>   -0.0220    1.0000 </r>
       <r>    0.3302    1.0000 </r>
       <r>    0.6610    1.0000 </r>
       <r>    0.7720    1.0000 </r>
       <r>    1.9992    1.0000 </r>
       <r>    2.1329    1.0000 </r>
       <r>    2.3141    1.0000 </r>
       <r>    2.5938    1.0000 </r>
       <r>    2.9741    1.0000 </r>
       <r>    4.6130    0.0000 </r>
       <r>    6.3805    0.0000 </r>
       <r>    6.5835    0.0000 </r>
       <r>    6.9706    0.0000 </r>
       <r>    7.3475    0.0000 </r>
       <r>    7.7432    0.0000 </r>
      </set>
      <set comment="kpoint 8">
       <r>  -38.4343    1.0000 </r>
[...]
        <r>  0.0000  0.0000  0.0000  0.0000  0.0000  0.0000  0.0000  0.0000  0.0000  0.0000  0.0000  0.0000  0.0000  0.0000  0.0000  0.0000 </r>
        <r>  0.0000  0.0000  0.0000  0.0000  0.0000  0.0000  0.0000  0.0000  0.0000  0.0000  0.0000  0.0000  0.0000  0.0000  0.0000  0.0000 </r>
        <r>  0.0000  0.0000  0.0000  0.0000  0.0000  0.0000  0.0000  0.0000  0.0000  0.0000  0.0000  0.0000  0.0000  0.0000  0.0000  0.0000 </r>
       </set>
       <set comment="band 3">
        <r>  0.0000  0.0967  0.0915  0.2901  0.0000  0.0000  0.0000  0.0000  0.0000  0.0000  0.0000  0.0000  0.0000  0.0000  0.0000  0.0000 </r>
        <r>  0.0000  0.0967  0.0915  0.2901  0.0000  0.0000  0.0000  0.0000  0.0000  0.0000  0.0000  0.0000  0.0000  0.0000  0.0000  0.0000 </r>
        <r>  0.0029  0.0000  0.0000  0.0000  0.0000  0.0000  0.0000  0.0000  0.0000  0.0000  0.0000  0.0000  0.0000  0.0000  0.0000  0.0000 </r>
        <r>  0.0006  0.0000  0.0002  0.0000  0.0000  0.0000  0.0000  0.0000  0.0000  0.0000  0.0000  0.0000  0.0000  0.0000  0.0000  0.0000 </r>
        <r>  0.0006  0.0000  0.0002  0.0000  0.0000  0.0000  0.0000  0.0000  0.0000  0.0000  0.0000  0.0000  0.0000  0.0000  0.0000  0.0000 </r>
       </set>
       <set comment="band 4">
        <r>  0.0000  0.0569  0.2552  0.1706  0.0000  0.0000  0.0000  0.0000  0.0000  0.0000  0.0000  0.0000  0.0000  0.0000  0.0000  0.0000 </r>
        <r>  0.0000  0.0569  0.2552  0.1706  0.0000  0.0000  0.0000  0.0000  0.0000  0.0000  0.0000  0.0000  0.0000  0.0000  0.0000  0.0000 </r>
        <r>  0.0000  0.0002  0.0002  0.0005  0.0000  0.0000  0.0000  0.0000  0.0000  0.0000  0.0000  0.0000  0.0000  0.0000  0.0000  0.0000 </r>
        <r>  0.0001  0.0000  0.0000  0.0001  0.0000  0.0000  0.0000  0.0000  0.0000  0.0000  0.0000  0.0000  0.0000  0.0000  0.0000  0.0000 </r>
        <r>  0.0001  0.0000  0.0000  0.0001  0.0000  0.0000  0.0000  0.0000  0.0000  0.0000  0.0000  0.0000  0.0000  0.0000  0.0000  0.0000 </r>
       </set>
       <set comment="band 5">
        <r>  0.0000  0.3656  0.0000  0.1219  0.0000  0.0000  0.0000  0.0000  0.0000  0.0000  0.0000  0.0000  0.0000  0.0000  0.0000  0.0000 </r>
        <r>  0.0000  0.3656  0.0000  0.1219  0.0000  0.0000  0.0000  0.0000  0.0000  0.0000  0.0000  0.0000  0.0000  0.0000  0.0000  0.0000 </r>
        <r>  0.0000  0.0006  0.0000  0.0002  0.0000  0.0000  0.0000  0.0000  0.0000  0.0000  0.0000  0.0000  0.0000  0.0000  0.0000  0.0000 </r>
        <r>  0.0000  0.0001  0.0000  0.0000  0.0000  0.0000  0.0000  0.0000  0.0000  0.0000  0.0000  0.0000  0.0000  0.0000  0.0000  0.0000 </r>
        <r>  0.0000  0.0001  0.0000  0.0000  0.0000  0.0000  0.0000  0.0000  0.0000  0.0000  0.0000  0.0000  0.0000  0.0000  0.0000  0.0000 </r>
       </set>
       <set comment="band 6">
        <r>  0.0000  0.0640  0.2309  0.1918  0.0000  0.0000  0.0000  0.0001  0.0000  0.0000  0.0000  0.0000  0.0000  0.0000  0.0000  0.0000 </r>
        <r>  0.0000  0.0640  0.2309  0.1919  0.0000  0.0000  0.0000  0.0001  0.0000  0.0000  0.0000  0.0000  0.0000  0.0000  0.0000  0.0000 </r>
        <r>  0.0000  0.0000  0.0004  0.0000  0.0000  0.0000  0.0000  0.0000  0.0000  0.0000  0.0000  0.0000  0.0000  0.0000  0.0000  0.0000 </r>
        <r>  0.0006  0.0000  0.0002  0.0000  0.0000  0.0000  0.0000  0.0000  0.0000  0.0000  0.0000  0.0000  0.0000  0.0000  0.0000  0.0000 </r>
        <r>  0.0006  0.0000  0.0002  0.0000  0.0000  0.0000  0.0000  0.0000  0.0000  0.0000  0.0000  0.0000  0.0000  0.0000  0.0000  0.0000 </r>
       </set>
       <set comment="band 7">
        <r>  0.0001  0.0231  0.3970  0.0694  0.0000  0.0000  0.0000  0.0000  0.0000  0.0000  0.0000  0.0000  0.0000  0.0000  0.0000  0.0000 </r>
        <r>  0.0001  0.0231  0.3970  0.0694  0.0000  0.0000  0.0000  0.0000  0.0000  0.0000  0.0000  0.0000  0.0000  0.0000  0.0000  0.0000 </r>
        <r>  0.0001  0.0000  0.0000  0.0000  0.0000  0.0000  0.0000  0.0000  0.0000  0.0000  0.0000  0.0000  0.0000  0.0000  0.0000  0.0000 </r>
        <r>  0.0000  0.0001  0.0000  0.0002  0.0000  0.0000  0.0000  0.0000  0.0000  0.0000  0.0000  0.0000  0.0000  0.0000  0.0000  0.0000 </r>
        <r>  0.0000  0.0001  0.0000  0.0002  0.0000  0.0000  0.0000  0.0000  0.0000  0.0000  0.0000  0.0000  0.0000  0.0000  0.0000  0.0000 </r>
       </set>
       <set comment="band 8">
        <r>  0.0000  0.3679  0.0000  0.1226  0.0000  0.0000  0.0000  0.0000  0.0000  0.0000  0.0000  0.0000  0.0000  0.0000  0.0000  0.0000 </r>
        <r>  0.0000  0.3679  0.0000  0.1226  0.0000  0.0000  0.0000  0.0000  0.0000  0.0000  0.0000  0.0000  0.0000  0.0000  0.0000  0.0000 </r>
        <r>  0.0000  0.0000  0.0000  0.0000  0.0000  0.0000  0.0000  0.0000  0.0000  0.0000  0.0000  0.0000  0.0000  0.0000  0.0000  0.0000 </r>
        <r>  0.0000  0.0001  0.0000  0.0000  0.0000  0.0000  0.0000  0.0000  0.0000  0.0000  0.0000  0.0000  0.0000  0.0000  0.0000  0.0000 </r>
        <r>  0.0000  0.0001  0.0000  0.0000  0.0000  0.0000  0.0000  0.0000  0.0000  0.0000  0.0000  0.0000  0.0000  0.0000  0.0000  0.0000 </r>
       </set>
       <set comment="band 9">
        <r>  0.0004  0.0007  0.0007  0.0022  0.0007  0.0008  0.0000  0.0023  0.0002  0.0000  0.0001  0.0000  0.0000  0.0001  0.0000  0.0000 </r>
        <r>  0.0004  0.0007  0.0007  0.0022  0.0007  0.0008  0.0000  0.0023  0.0002  0.0000  0.0001  0.0000  0.0000  0.0001  0.0000  0.0000 </r>
        <r>  0.0006  0.0000  0.0000  0.0000  0.0000  0.0000  0.0000  0.0000  0.0000  0.0000  0.0000  0.0000  0.0000  0.0000  0.0000  0.0000 </r>
        <r>  0.3741  0.0000  0.0006  0.0000  0.0000  0.0000  0.0000  0.0000  0.0000  0.0000  0.0000  0.0000  0.0000  0.0000  0.0000  0.0000 </r>
        <r>  0.3741  0.0000  0.0006  0.0000  0.0000  0.0000  0.0000  0.0000  0.0000  0.0000  0.0000  0.0000  0.0000  0.0000  0.0000  0.0000 </r>
       </set>
       <set comment="band 10">
        <r>  0.0004  0.0010  0.0007  0.0029  0.0006  0.0006  0.0000  0.0019  0.0002  0.0000  0.0001  0.0000  0.0000  0.0001  0.0000  0.0000 </r>
        <r>  0.0004  0.0010  0.0007  0.0029  0.0006  0.0006  0.0000  0.0019  0.0002  0.0000  0.0001  0.0000  0.0000  0.0001  0.0000  0.0000 </r>
        <r>  0.0000  0.0000  0.0000  0.0000  0.0000  0.0000  0.0000  0.0000  0.0000  0.0000  0.0000  0.0000  0.0000  0.0000  0.0000  0.0000 </r>
        <r>  0.3759  0.0000  0.0007  0.0000  0.0000  0.0000  0.0000  0.0000  0.0000  0.0000  0.0000  0.0000  0.0000  0.0000  0.0000  0.0000 </r>
        <r>  0.3759  0.0000  0.0007  0.0000  0.0000  0.0000  0.0000  0.0000  0.0000  0.0000  0.0000  0.0000  0.0000  0.0000  0.0000  0.0000 </r>
       </set>
       <set comment="band 11">
        <r>  0.0044  0.0079  0.0023  0.0237  0.0117  0.0050  0.0001  0.0151  0.0039  0.0002  0.0011  0.0000  0.0001  0.0001  0.0004  0.0000 </r>
        <r>  0.0044  0.0079  0.0023  0.0237  0.0117  0.0050  0.0001  0.0151  0.0039  0.0002  0.0011  0.0000  0.0001  0.0001  0.0004  0.0000 </r>
        <r>  0.4282  0.0000  0.0000  0.0000  0.0000  0.0000  0.0000  0.0000  0.0000  0.0000  0.0000  0.0000  0.0000  0.0000  0.0000  0.0000 </r>
        <r>  0.0011  0.0000  0.0004  0.0001  0.0000  0.0000  0.0000  0.0000  0.0000  0.0000  0.0000  0.0000  0.0000  0.0000  0.0000  0.0000 </r>
        <r>  0.0011  0.0000  0.0004  0.0001  0.0000  0.0000  0.0000  0.0000  0.0000  0.0000  0.0000  0.0000  0.0000  0.0000  0.0000  0.0000 </r>
       </set>
       <set comment="band 12">
        <r>  0.0208  0.0001  0.0035  0.0004  0.0053  0.0017  0.0044  0.0052  0.0018  0.0000  0.0000  0.0000  0.0000  0.0000  0.0000  0.0000 </r>
        <r>  0.0208  0.0001  0.0035  0.0004  0.0053  0.0017  0.0044  0.0052  0.0018  0.0000  0.0000  0.0000  0.0000  0.0000  0.0000  0.0000 </r>
        <r>  0.0000  0.0021  0.0021  0.0064  0.0000  0.0000  0.0000  0.0000  0.0000  0.0000  0.0000  0.0000  0.0000  0.0000  0.0000  0.0000 </r>
        <r>  0.0000  0.0437  0.0017  0.1312  0.0000  0.0001  0.0000  0.0003  0.0000  0.0000  0.0000  0.0000  0.0000  0.0000  0.0000  0.0000 </r>
        <r>  0.0000  0.0437  0.0017  0.1312  0.0000  0.0001  0.0000  0.0003  0.0000  0.0000  0.0000  0.0000  0.0000  0.0000  0.0000  0.0000 </r>
       </set>
       <set comment="band 13">
        <r>  0.0068  0.0009  0.0124  0.0028  0.0002  0.0019  0.0040  0.0058  0.0001  0.0000  0.0001  0.0000  0.0000  0.0001  0.0000  0.0000 </r>
        <r>  0.0068  0.0009  0.0124  0.0028  0.0002  0.0019  0.0040  0.0058  0.0001  0.0000  0.0001  0.0000  0.0000  0.0001  0.0000  0.0000 </r>
        <r>  0.0013  0.0000  0.0000  0.0000  0.0000  0.0000  0.0000  0.0000  0.0000  0.0000  0.0000  0.0000  0.0000  0.0000  0.0000  0.0000 </r>
        <r>  0.0000  0.0494  0.0028  0.1481  0.0000  0.0001  0.0000  0.0003  0.0000  0.0000  0.0000  0.0000  0.0000  0.0000  0.0000  0.0000 </r>
        <r>  0.0000  0.0494  0.0028  0.1481  0.0000  0.0001  0.0000  0.0003  0.0000  0.0000  0.0000  0.0000  0.0000  0.0000  0.0000  0.0000 </r>
       </set>
       <set comment="band 14">
        <r>  0.0122  0.0074  0.0044  0.0221  0.0180  0.0016  0.0001  0.0047  0.0060  0.0000  0.0002  0.0000  0.0000  0.0001  0.0001  0.0000 </r>
        <r>  0.0122  0.0074  0.0044  0.0221  0.0180  0.0016  0.0001  0.0047  0.0060  0.0000  0.0002  0.0000  0.0000  0.0001  0.0001  0.0000 </r>
        <r>  0.0000  0.0050  0.0021  0.0151  0.0000  0.0000  0.0000  0.0000  0.0000  0.0000  0.0000  0.0000  0.0000  0.0000  0.0000  0.0000 </r>
        <r>  0.0053  0.0028  0.1831  0.0084  0.0000  0.0000  0.0006  0.0000  0.0000  0.0000  0.0000  0.0000  0.0000  0.0000  0.0000  0.0000 </r>
        <r>  0.0053  0.0028  0.1831  0.0084  0.0000  0.0000  0.0006  0.0000  0.0000  0.0000  0.0000  0.0000  0.0000  0.0000  0.0000  0.0000 </r>
       </set>
       <set comment="band 15">
        <r>  0.0033  0.0059  0.0048  0.0177  0.0095  0.0020  0.0008  0.0060  0.0032  0.0002  0.0009  0.0000  0.0000  0.0000  0.0003  0.0000 </r>
        <r>  0.0033  0.0059  0.0048  0.0176  0.0095  0.0020  0.0008  0.0060  0.0032  0.0002  0.0009  0.0000  0.0000  0.0000  0.0003  0.0000 </r>
        <r>  0.0041  0.0000  0.0000  0.0000  0.0000  0.0000  0.0000  0.0000  0.0000  0.0000  0.0000  0.0000  0.0000  0.0000  0.0000  0.0000 </r>
        <r>  0.0032  0.0010  0.2229  0.0029  0.0000  0.0000  0.0004  0.0000  0.0000  0.0000  0.0000  0.0000  0.0000  0.0000  0.0000  0.0000 </r>
        <r>  0.0032  0.0010  0.2229  0.0029  0.0000  0.0000  0.0004  0.0000  0.0000  0.0000  0.0000  0.0000  0.0000  0.0000  0.0000  0.0000 </r>
       </set>
       <set comment="band 16">
        <r>  0.0000  0.0004  0.0000  0.0001  0.0006  0.0480  0.0000  0.0160  0.0019  0.0000  0.0000  0.0003  0.0000  0.0001  0.0000  0.0000 </r>
        <r>  0.0000  0.0004  0.0000  0.0001  0.0006  0.0480  0.0000  0.0160  0.0019  0.0000  0.0000  0.0003  0.0000  0.0001  0.0000  0.0000 </r>
        <r>  0.0000  0.0207  0.0000  0.0069  0.0000  0.0000  0.0000  0.0000  0.0000  0.0000  0.0000  0.0000  0.0000  0.0000  0.0000  0.0000 </r>
        <r>  0.0000  0.1692  0.0000  0.0564  0.0000  0.0007  0.0000  0.0002  0.0000  0.0000  0.0000  0.0000  0.0000  0.0000  0.0000  0.0000 </r>
        <r>  0.0000  0.1692  0.0000  0.0564  0.0000  0.0007  0.0000  0.0002  0.0000  0.0000  0.0000  0.0000  0.0000  0.0000  0.0000  0.0000 </r>
       </set>
       <set comment="band 17">
        <r>  0.0000  0.0073  0.0000  0.0024  0.0003  0.0182  0.0000  0.0061  0.0009  0.0000  0.0000  0.0010  0.0000  0.0003  0.0001  0.0004 </r>
        <r>  0.0000  0.0073  0.0000  0.0024  0.0003  0.0182  0.0000  0.0061  0.0009  0.0000  0.0000  0.0010  0.0000  0.0003  0.0001  0.0004 </r>
        <r>  0.0000  0.0000  0.0000  0.0000  0.0000  0.0000  0.0000  0.0000  0.0000  0.0000  0.0000  0.0000  0.0000  0.0000  0.0000  0.0000 </r>
        <r>  0.0000  0.2003  0.0000  0.0668  0.0000  0.0005  0.0000  0.0002  0.0000  0.0000  0.0000  0.0000  0.0000  0.0000  0.0000  0.0000 </r>
        <r>  0.0000  0.2003  0.0000  0.0668  0.0000  0.0005  0.0000  0.0002  0.0000  0.0000  0.0000  0.0000  0.0000  0.0000  0.0000  0.0000 </r>
       </set>
       <set comment="band 18">
        <r>  0.0333  0.0005  0.0492  0.0015  0.0089  0.0103  0.0004  0.0309  0.0030  0.0005  0.0010  0.0000  0.0004  0.0001  0.0003  0.0000 </r>
        <r>  0.0333  0.0005  0.0492  0.0015  0.0089  0.0103  0.0004  0.0309  0.0030  0.0005  0.0010  0.0000  0.0004  0.0001  0.0003  0.0000 </r>
        <r>  0.0000  0.0362  0.0045  0.1086  0.0000  0.0000  0.0000  0.0000  0.0000  0.0000  0.0000  0.0000  0.0000  0.0000  0.0000  0.0000 </r>
        <r>  0.0001  0.0042  0.0527  0.0127  0.0000  0.0002  0.0000  0.0005  0.0000  0.0000  0.0000  0.0000  0.0000  0.0000  0.0000  0.0000 </r>
        <r>  0.0001  0.0042  0.0527  0.0127  0.0000  0.0002  0.0000  0.0005  0.0000  0.0000  0.0000  0.0000  0.0000  0.0000  0.0000  0.0000 </r>
       </set>
       <set comment="band 19">
        <r>  0.0000  0.0175  0.0016  0.0526  0.0400  0.0027  0.0218  0.0080  0.0133  0.0003  0.0000  0.0005  0.0000  0.0014  0.0000  0.0000 </r>
        <r>  0.0000  0.0175  0.0016  0.0526  0.0400  0.0027  0.0218  0.0080  0.0133  0.0003  0.0000  0.0005  0.0000  0.0014  0.0000  0.0000 </r>
        <r>  0.0000  0.0044  0.2319  0.0132  0.0000  0.0000  0.0000  0.0000  0.0000  0.0000  0.0000  0.0000  0.0000  0.0000  0.0000  0.0000 </r>
        <r>  0.0000  0.0005  0.0005  0.0015  0.0005  0.0001  0.0001  0.0003  0.0002  0.0000  0.0000  0.0000  0.0000  0.0000  0.0000  0.0000 </r>
        <r>  0.0000  0.0005  0.0005  0.0015  0.0005  0.0001  0.0001  0.0003  0.0002  0.0000  0.0000  0.0000  0.0000  0.0000  0.0000  0.0000 </r>
       </set>
       <set comment="band 20">
        <r>  0.0000  0.0442  0.0000  0.0147  0.0017  0.0550  0.0000  0.0183  0.0052  0.0000  0.0003  0.0020  0.0000  0.0007  0.0010  0.0034 </r>
        <r>  0.0000  0.0442  0.0000  0.0147  0.0017  0.0550  0.0000  0.0183  0.0052  0.0000  0.0003  0.0020  0.0000  0.0007  0.0010  0.0034 </r>
        <r>  0.0000  0.1869  0.0000  0.0623  0.0000  0.0000  0.0000  0.0000  0.0000  0.0000  0.0000  0.0000  0.0000  0.0000  0.0000  0.0000 </r>
        <r>  0.0000  0.0373  0.0000  0.0124  0.0000  0.0000  0.0000  0.0000  0.0000  0.0000  0.0000  0.0000  0.0000  0.0000  0.0000  0.0000 </r>
        <r>  0.0000  0.0373  0.0000  0.0124  0.0000  0.0000  0.0000  0.0000  0.0000  0.0000  0.0000  0.0000  0.0000  0.0000  0.0000  0.0000 </r>
       </set>
       <set comment="band 21">
        <r>  0.0011  0.0011  0.0041  0.0034  0.0799  0.0157  0.0984  0.0471  0.0266  0.0000  0.0001  0.0000  0.0001  0.0001  0.0000  0.0000 </r>
        <r>  0.0011  0.0011  0.0041  0.0034  0.0799  0.0157  0.0984  0.0471  0.0266  0.0000  0.0001  0.0000  0.0001  0.0001  0.0000  0.0000 </r>
        <r>  0.0000  0.0000  0.0000  0.0000  0.0000  0.0000  0.0000  0.0000  0.0000  0.0000  0.0000  0.0000  0.0000  0.0000  0.0000  0.0000 </r>
        <r>  0.0004  0.0004  0.0076  0.0011  0.0021  0.0001  0.0015  0.0004  0.0007  0.0000  0.0000  0.0000  0.0000  0.0000  0.0000  0.0000 </r>
        <r>  0.0004  0.0004  0.0076  0.0011  0.0021  0.0001  0.0015  0.0004  0.0007  0.0000  0.0000  0.0000  0.0000  0.0000  0.0000  0.0000 </r>
       </set>
       <set comment="band 22">
        <r>  0.0109  0.0001  0.0018  0.0004  0.0164  0.0129  0.0865  0.0387  0.0055  0.0006  0.0045  0.0009  0.0037  0.0027  0.0015  0.0000 </r>
        <r>  0.0109  0.0001  0.0018  0.0004  0.0164  0.0129  0.0865  0.0387  0.0055  0.0006  0.0045  0.0009  0.0037  0.0027  0.0015  0.0000 </r>
        <r>  0.0000  0.0025  0.0741  0.0074  0.0000  0.0000  0.0000  0.0000  0.0000  0.0000  0.0000  0.0000  0.0000  0.0000  0.0000  0.0000 </r>
        <r>  0.0061  0.0000  0.0005  0.0001  0.0185  0.0001  0.0051  0.0003  0.0062  0.0000  0.0000  0.0000  0.0000  0.0000  0.0000  0.0000 </r>
        <r>  0.0061  0.0000  0.0005  0.0001  0.0185  0.0001  0.0051  0.0003  0.0062  0.0000  0.0000  0.0000  0.0000  0.0000  0.0000  0.0000 </r>
       </set>
       <set comment="band 23">
        <r>  0.0035  0.0168  0.0005  0.0504  0.0001  0.0200  0.0363  0.0600  0.0000  0.0004  0.0026  0.0004  0.0018  0.0013  0.0009  0.0000 </r>
        <r>  0.0035  0.0168  0.0005  0.0504  0.0001  0.0200  0.0363  0.0600  0.0000  0.0004  0.0026  0.0004  0.0018  0.0013  0.0009  0.0000 </r>
        <r>  0.0004  0.0000  0.0000  0.0000  0.0000  0.0000  0.0000  0.0000  0.0000  0.0000  0.0000  0.0000  0.0000  0.0000  0.0000  0.0000 </r>
        <r>  0.0139  0.0021  0.0099  0.0063  0.0021  0.0046  0.0036  0.0138  0.0007  0.0000  0.0000  0.0000  0.0000  0.0000  0.0000  0.0000 </r>
        <r>  0.0139  0.0021  0.0099  0.0063  0.0021  0.0046  0.0036  0.0138  0.0007  0.0000  0.0000  0.0000  0.0000  0.0000  0.0000  0.0000 </r>
       </set>
       <set comment="band 24">
        <r>  0.0001  0.0000  0.0167  0.0000  0.0442  0.0045  0.1425  0.0134  0.0147  0.0020  0.0002  0.0003  0.0016  0.0009  0.0001  0.0000 </r>
        <r>  0.0001  0.0000  0.0167  0.0000  0.0442  0.0045  0.1425  0.0134  0.0147  0.0020  0.0002  0.0003  0.0016  0.0009  0.0001  0.0000 </r>
        <r>  0.0000  0.0271  0.0100  0.0812  0.0000  0.0000  0.0000  0.0000  0.0000  0.0000  0.0000  0.0000  0.0000  0.0000  0.0000  0.0000 </r>
        <r>  0.0014  0.0010  0.0002  0.0030  0.0009  0.0036  0.0004  0.0109  0.0003  0.0000  0.0000  0.0000  0.0000  0.0000  0.0000  0.0000 </r>
        <r>  0.0014  0.0010  0.0002  0.0030  0.0009  0.0036  0.0004  0.0109  0.0003  0.0000  0.0000  0.0000  0.0000  0.0000  0.0000  0.0000 </r>
       </set>
       <set comment="band 25">
        <r>  0.0000  0.0005  0.0000  0.0002  0.0715  0.0811  0.0000  0.0271  0.2150  0.0000  0.0002  0.0003  0.0000  0.0001  0.0007  0.0005 </r>
        <r>  0.0000  0.0005  0.0000  0.0002  0.0716  0.0811  0.0000  0.0271  0.2149  0.0000  0.0002  0.0003  0.0000  0.0001  0.0007  0.0005 </r>
        <r>  0.0000  0.0243  0.0000  0.0081  0.0000  0.0000  0.0000  0.0000  0.0000  0.0000  0.0000  0.0000  0.0000  0.0000  0.0000  0.0000 </r>
        <r>  0.0000  0.0056  0.0000  0.0018  0.0000  0.0008  0.0000  0.0003  0.0000  0.0000  0.0000  0.0000  0.0000  0.0000  0.0000  0.0000 </r>
        <r>  0.0000  0.0056  0.0000  0.0019  0.0000  0.0008  0.0000  0.0003  0.0000  0.0000  0.0000  0.0000  0.0000  0.0000  0.0000  0.0000 </r>
       </set>
       <set comment="band 26">
        <r>  0.0001  0.0044  0.0001  0.0010  0.0351  0.1595  0.0003  0.0526  0.1198  0.0000  0.0000  0.0001  0.0000  0.0000  0.0000  0.0008 </r>
        <r>  0.0001  0.0040  0.0002  0.0013  0.0372  0.1566  0.0002  0.0552  0.1170  0.0000  0.0000  0.0001  0.0000  0.0000  0.0000  0.0008 </r>
        <r>  0.0000  0.0000  0.0000  0.0000  0.0000  0.0000  0.0000  0.0000  0.0000  0.0000  0.0000  0.0000  0.0000  0.0000  0.0000  0.0000 </r>
        <r>  0.0000  0.0163  0.0000  0.0049  0.0002  0.0120  0.0000  0.0034  0.0011  0.0000  0.0000  0.0000  0.0000  0.0000  0.0000  0.0000 </r>
        <r>  0.0001  0.0163  0.0001  0.0049  0.0002  0.0116  0.0000  0.0038  0.0011  0.0000  0.0000  0.0000  0.0000  0.0000  0.0000  0.0000 </r>
       </set>
      </set>
     </set>
    </set>
   </array>
  </projected>
 </calculation>
 <structure name="finalpos" >
  <crystal>
   <varray name="basis" >
    <v>       3.88532197       0.00000188      -0.00000021 </v>
    <v>      -1.94265986       3.36478724      -0.00000023 </v>
    <v>      -0.00000059      -0.00000111      11.09957736 </v>
   </varray>
   <i name="volume">    145.10794323 </i>
   <varray name="rec_basis" >
    <v>       0.25737886       0.14859768       0.00000003 </v>
    <v>      -0.00000014       0.29719553       0.00000003 </v>
    <v>       0.00000000       0.00000001       0.09009352 </v>
   </varray>
  </crystal>
  <varray name="positions" >
   <v>       0.33333281       0.66666653       0.11776981 </v>
   <v>       0.66666681       0.33333327       0.88223018 </v>
   <v>      -0.00000021      -0.00000012      -0.00000003 </v>
   <v>       0.33333287       0.66666675       0.68720545 </v>
   <v>       0.66666773       0.33333357       0.31279460 </v>
  </varray>
 </structure>
</modeling>
