 vasp.5.4.4.18Apr17-6-g9f103f2a35 (build Feb  5 2022 00:56:52) complex           
 executed on             LinuxGNU date 2022.02.08  03:19:48
 running on   21 total cores
 each image running on    3 cores
 distrk:  each k-point on    3 cores,    1 groups
 distr:  one band on NCORES_PER_BAND=   3 cores,    1 groups


--------------------------------------------------------------------------------------------------------


 INCAR:
 POTCAR:    PAW_PBE Y_sv 25May2007                
 POTCAR:    PAW_PBE C 08Apr2002                   
 POTCAR:    PAW_PBE I 08Apr2002                   
 POTCAR:    PAW_PBE Y_sv 25May2007                
   VRHFIN =Y: 4s4p5s4d                                                          
   LEXCH  = PE                                                                  
   EATOM  =  1046.9140 eV,   76.9460 Ry                                         
                                                                                
   TITEL  = PAW_PBE Y_sv 25May2007                                              
   LULTRA =        F    use ultrasoft PP ?                                      
   IUNSCR =        1    unscreen: 0-lin 1-nonlin 2-no                           
   RPACOR =    2.200    partial core radius                                     
   POMASS =   88.906; ZVAL   =   11.000    mass and valenz                      
   RCORE  =    2.800    outmost cutoff radius                                   
   RWIGS  =    3.430; RWIGS  =    1.815    wigner-seitz radius (au A)           
   ENMAX  =  202.626; ENMIN  =  151.970 eV                                      
   RCLOC  =    2.212    cutoff for local pot                                    
   LCOR   =        T    correct aug charges                                     
   LPAW   =        T    paw PP                                                  
   EAUG   =  470.889                                                            
   DEXC   =    0.000                                                            
   RMAX   =    2.863    core radius for proj-oper                               
   RAUG   =    1.300    factor for augmentation sphere                          
   RDEP   =    2.926    radius for radial grids                                 
   RDEPT  =    2.280    core radius for aug-charge                              
                                                                                
   Atomic configuration                                                         
   11 entries                                                                   
     n  l   j            E        occ.                                          
     1  0  0.50    -16863.0720   2.0000                                         
     2  0  0.50     -2309.2881   2.0000                                         
     2  1  1.50     -2055.5536   6.0000                                         
     3  0  0.50      -367.1837   2.0000                                         
     3  1  1.50      -284.8912   6.0000                                         
     3  2  2.50      -149.4324  10.0000                                         
     4  0  0.50       -46.3345   2.0000                                         
     5  0  0.50        -3.6387   1.0000                                         
     4  1  1.50       -26.3769   6.0000                                         
     4  2  2.50        -1.6291   2.0000                                         
     4  3  2.50        -1.3606   0.0000                                         
   Description                                                                  
     l       E           TYP  RCUT    TYP  RCUT                                 
     0    -46.3344714     23  2.600                                             
     0     -3.6387002     23  2.700                                             
     1    -26.3769044     23  2.600                                             
     1    -27.7374870     23  2.600                                             
     2     -1.6291019     23  2.600                                             
     2      0.1354037     23  2.600                                             
     3     -1.3605826     23  2.800                                             
  local pseudopotential read in
  partial core-charges read in
  partial kinetic energy density read in
  atomic valenz-charges read in
  non local Contribution for L=           0  read in
    real space projection operators read in
  non local Contribution for L=           0  read in
    real space projection operators read in
  non local Contribution for L=           1  read in
    real space projection operators read in
  non local Contribution for L=           1  read in
    real space projection operators read in
  non local Contribution for L=           2  read in
    real space projection operators read in
  non local Contribution for L=           2  read in
    real space projection operators read in
  non local Contribution for L=           3  read in
    real space projection operators read in
    PAW grid and wavefunctions read in

   number of l-projection  operators is LMAX  =           7
   number of lm-projection operators is LMMAX =          25

 POTCAR:    PAW_PBE C 08Apr2002                   
   VRHFIN =C: s2p2                                                              
   LEXCH  = PE                                                                  
   EATOM  =   147.1560 eV,   10.8157 Ry                                         
                                                                                
   TITEL  = PAW_PBE C 08Apr2002                                                 
   LULTRA =        F    use ultrasoft PP ?                                      
   IUNSCR =        1    unscreen: 0-lin 1-nonlin 2-no                           
   RPACOR =    1.200    partial core radius                                     
   POMASS =   12.011; ZVAL   =    4.000    mass and valenz                      
   RCORE  =    1.500    outmost cutoff radius                                   
   RWIGS  =    1.630; RWIGS  =    0.863    wigner-seitz radius (au A)           
   ENMAX  =  400.000; ENMIN  =  300.000 eV                                      
   ICORE  =        2    local potential                                         
   LCOR   =        T    correct aug charges                                     
   LPAW   =        T    paw PP                                                  
   EAUG   =  644.873                                                            
   DEXC   =    0.000                                                            
   RMAX   =    1.529    core radius for proj-oper                               
   RAUG   =    1.300    factor for augmentation sphere                          
   RDEP   =    1.501    radius for radial grids                                 
   RDEPT  =    1.300    core radius for aug-charge                              
                                                                                
   Atomic configuration                                                         
    4 entries                                                                   
     n  l   j            E        occ.                                          
     1  0  0.50      -273.3789   2.0000                                         
     2  0  0.50       -13.7508   2.0000                                         
     2  1  0.50        -5.2854   2.0000                                         
     3  2  1.50        -5.4423   0.0000                                         
   Description                                                                  
     l       E           TYP  RCUT    TYP  RCUT                                 
     0    -13.7508458     23  1.200                                             
     0     -8.2022199     23  1.200                                             
     1     -5.2854383     23  1.500                                             
     1     34.0145650     23  1.500                                             
     2     -5.4423304      7  1.500                                             
  local pseudopotential read in
  partial core-charges read in
  partial kinetic energy density read in
  atomic valenz-charges read in
  non local Contribution for L=           0  read in
    real space projection operators read in
  non local Contribution for L=           0  read in
    real space projection operators read in
  non local Contribution for L=           1  read in
    real space projection operators read in
  non local Contribution for L=           1  read in
    real space projection operators read in
    PAW grid and wavefunctions read in

   number of l-projection  operators is LMAX  =           4
   number of lm-projection operators is LMMAX =           8

 POTCAR:    PAW_PBE I 08Apr2002                   
   VRHFIN =I : s2p5                                                             
   LEXCH  = PE                                                                  
   EATOM  =   315.8678 eV,   23.2156 Ry                                         
                                                                                
   TITEL  = PAW_PBE I 08Apr2002                                                 
   LULTRA =        F    use ultrasoft PP ?                                      
   IUNSCR =        1    unscreen: 0-lin 1-nonlin 2-no                           
   RPACOR =    2.200    partial core radius                                     
   POMASS =  126.904; ZVAL   =    7.000    mass and valenz                      
   RCORE  =    2.300    outmost cutoff radius                                   
   RWIGS  =    2.810; RWIGS  =    1.487    wigner-seitz radius (au A)           
   ENMAX  =  175.647; ENMIN  =  131.735 eV                                      
   ICORE  =        3    local potential                                         
   LCOR   =        T    correct aug charges                                     
   LPAW   =        T    paw PP                                                  
   EAUG   =  370.139                                                            
   DEXC   =    0.000                                                            
   RMAX   =    2.359    core radius for proj-oper                               
   RAUG   =    1.300    factor for augmentation sphere                          
   RDEP   =    2.392    radius for radial grids                                 
   RDEPT  =    2.170    core radius for aug-charge                              
                                                                                
   Atomic configuration                                                         
   13 entries                                                                   
     n  l   j            E        occ.                                          
     1  0  0.50    -32976.3739   2.0000                                         
     2  0  0.50     -5094.5933   2.0000                                         
     2  1  1.50     -4572.0131   6.0000                                         
     3  0  0.50     -1028.2813   2.0000                                         
     3  1  1.50      -859.0250   6.0000                                         
     3  2  2.50      -605.7620  10.0000                                         
     4  0  0.50      -180.5540   2.0000                                         
     4  1  1.50      -127.5306   6.0000                                         
     4  2  2.50       -50.2720  10.0000                                         
     5  0  0.50       -17.4058   2.0000                                         
     5  1  0.50        -7.0851   5.0000                                         
     5  2  1.50        -7.0750   0.0000                                         
     4  3  2.50        -7.0750   0.0000                                         
   Description                                                                  
     l       E           TYP  RCUT    TYP  RCUT                                 
     0    -17.4058016     23  2.300                                             
     0    -18.7663842     23  2.300                                             
     1     -7.0850686     23  2.300                                             
     1     -4.2150896     23  2.300                                             
     2     -7.0750295     23  2.300                                             
     3     -1.3605826     23  2.300                                             
  local pseudopotential read in
  partial core-charges read in
  partial kinetic energy density read in
  atomic valenz-charges read in
  non local Contribution for L=           0  read in
    real space projection operators read in
  non local Contribution for L=           0  read in
    real space projection operators read in
  non local Contribution for L=           1  read in
    real space projection operators read in
  non local Contribution for L=           1  read in
    real space projection operators read in
  non local Contribution for L=           2  read in
    real space projection operators read in
    PAW grid and wavefunctions read in

   number of l-projection  operators is LMAX  =           5
   number of lm-projection operators is LMMAX =          13

 Optimization of the real space projectors (new method)

 maximal supplied QI-value         = 13.42
 optimisation between [QCUT,QGAM] = [ 11.67, 23.35] = [ 38.16,152.62] Ry 
 Optimized for a Real-space Cutoff    1.68 Angstroem

   l    n(q)    QCUT    max X(q) W(low)/X(q) W(high)/X(q)  e(spline) 
   0     12    11.673    14.902    0.22E-04    0.24E-05    0.52E-07
   0     12    11.673     9.294    0.34E-04    0.58E-05    0.89E-07
   1     11    11.673    69.520    0.10E-04    0.47E-04    0.49E-06
   1     11    11.673    72.085    0.10E-04    0.48E-04    0.50E-06
   2     11    11.673    62.934    0.94E-04    0.14E-04    0.82E-06
   2     11    11.673    49.749    0.91E-04    0.13E-04    0.79E-06
   3     10    11.673     8.311    0.92E-04    0.21E-04    0.59E-06
 Optimization of the real space projectors (new method)

 maximal supplied QI-value         = 25.13
 optimisation between [QCUT,QGAM] = [ 11.56, 23.12] = [ 37.43,149.72] Ry 
 Optimized for a Real-space Cutoff    1.04 Angstroem

   l    n(q)    QCUT    max X(q) W(low)/X(q) W(high)/X(q)  e(spline) 
   0      7    11.561   115.676    0.20E-03    0.60E-03    0.21E-06
   0      7    11.561    87.132    0.20E-03    0.59E-03    0.21E-06
   1      7    11.561     4.429    0.23E-03    0.35E-03    0.15E-06
   1      7    11.561     2.733    0.18E-03    0.25E-03    0.12E-06
 Optimization of the real space projectors (new method)

 maximal supplied QI-value         = 16.25
 optimisation between [QCUT,QGAM] = [ 11.54, 23.24] = [ 37.28,151.24] Ry 
 Optimized for a Real-space Cutoff    1.40 Angstroem

   l    n(q)    QCUT    max X(q) W(low)/X(q) W(high)/X(q)  e(spline) 
   0     10    11.539   194.483    0.48E-04    0.89E-04    0.13E-06
   0     10    11.539   190.334    0.47E-04    0.86E-04    0.12E-06
   1      9    11.539   116.687    0.15E-03    0.73E-04    0.13E-06
   1      9    11.539    88.696    0.15E-03    0.72E-04    0.13E-06
   2      9    11.539     4.877    0.99E-05    0.58E-04    0.56E-07
  PAW_PBE Y_sv 25May2007                :
 energy of atom  1       EATOM=-1046.9140
 kinetic energy error for atom=    0.0008 (will be added to EATOM!!)
  PAW_PBE C 08Apr2002                   :
 energy of atom  2       EATOM= -147.1560
 kinetic energy error for atom=    0.0071 (will be added to EATOM!!)
  PAW_PBE I 08Apr2002                   :
 energy of atom  3       EATOM= -315.8678
 kinetic energy error for atom=    0.0009 (will be added to EATOM!!)


 POSCAR: Y8 C4 I7                                
  positions in direct lattice
  No initial velocities read in
 exchange correlation table for  LEXCH =        8
   RHO(1)=    0.500       N(1)  =     2000
   RHO(2)=  100.500       N(2)  =     4000

 VTST: version 3.2, (02/03/18)

 CHAIN: initializing optimizer
 
 OPT: Using VASP QUASI-newton optimizer
 CHAIN: Read ICHAIN            0
 CHAIN: Running the NEB
 NEB:          SPRING     -5.000000
 NEB:          LCLIMB      T
 NEB:     LTANGENTOLD      F
 NEB:           LDNEB      F
 NEB:        LDNEBORG      F
 NEB:        LNEBCELL      F
 NEB:          EFIRST      0.000000
 NEB:           ELAST      0.000000

 POSCAR: Y8 C4 I7                                
  positions in direct lattice
  No initial velocities read in

 POSCAR: Y8 C4 I7                                
  positions in direct lattice
  No initial velocities read in



--------------------------------------------------------------------------------------------------------


 ion  position               nearest neighbor table
   1  0.994  0.334  0.117-   9 2.60  11 2.61  12 2.61  16 3.12  13 3.12  14 3.12   5 3.36   8 3.45
                             6 3.54   2 3.83   4 3.85   3 3.87   4 3.88   3 3.91   2 3.94
   2  0.501  0.337  0.120-  12 2.61  10 2.61  11 2.62  15 3.09  14 3.10  13 3.10   5 3.37   6 3.39
                             7 3.42   1 3.83   4 3.85   3 3.87   4 3.90   1 3.94   3 3.94
   3  0.245  0.831  0.121-  11 2.61  10 2.64   9 2.69  13 3.07  16 3.07  15 3.10   5 3.26   8 3.41
                             7 3.42   4 3.86   1 3.87   2 3.87   1 3.91   4 3.91   2 3.94
   4  0.748  0.832  0.120-   9 2.58  10 2.59  12 2.66  15 3.08  16 3.09  14 3.13   8 3.39   7 3.39
                             6 3.51   2 3.85   1 3.85   3 3.86   1 3.88   2 3.90   3 3.91
   5  0.248  0.151  0.900-  10 2.47   9 2.49  11 2.59  17 2.89   3 3.26  18 3.27   1 3.36   2 3.37
                             6 3.72   8 3.75   7 3.76   7 4.01   8 4.05   6 4.06
   6  0.727  0.169  0.879-  10 2.50  12 2.55   9 2.66  19 3.06   2 3.39   4 3.51   1 3.54   5 3.72
                             7 3.79   7 3.82   8 3.92   8 4.00   5 4.06
   7  0.498  0.672  0.888-  12 2.53  10 2.54  11 2.59  18 3.11  19 3.16   4 3.39   2 3.42   3 3.42
                            17 3.66   5 3.76   6 3.79   6 3.82   8 3.86   8 3.91   5 4.01
   8  0.995  0.677  0.887-   9 2.51  12 2.57  11 2.61  18 3.08  19 3.21   4 3.39   3 3.41   1 3.45
                             5 3.75   7 3.86   7 3.91   6 3.92   6 4.00   5 4.05
   9  0.988  0.003  0.996-   5 2.49   8 2.51   4 2.58   1 2.60   6 2.66   3 2.69
  10  0.499  0.000  0.002-   5 2.47   6 2.50   7 2.54   4 2.59   2 2.61   3 2.64
  11  0.247  0.499  1.000-   5 2.59   7 2.59   1 2.61   3 2.61   8 2.61   2 2.62
  12  0.746  0.498  0.993-   7 2.53   6 2.55   8 2.57   2 2.61   1 2.61   4 2.66
  13  0.248  0.165  0.309-   3 3.07   2 3.10   1 3.12
  14  0.746  0.169  0.315-   2 3.10   1 3.12   4 3.13
  15  0.501  0.669  0.312-   4 3.08   2 3.09   3 3.10
  16  0.997  0.667  0.312-   3 3.07   4 3.09   1 3.12
  17  0.310  0.332  0.668-   5 2.89  18 3.28  18 3.54   7 3.66
  18  0.246  0.813  0.688-   8 3.08   7 3.11   5 3.27  17 3.28  17 3.54
  19  0.739  0.848  0.685-   6 3.06   7 3.16   8 3.21


IMPORTANT INFORMATION: All symmetrisations will be switched off!
NOSYMM: (Re-)initialisation of all symmetry stuff for point group C_1.




Automatic generation of k-mesh.
 generate k-points for:    2    2    2
Space group operators:
 irot       det(A)        alpha          n_x          n_y          n_z        tau_x        tau_y        tau_z
    1     1.000000     0.000000     1.000000     0.000000     0.000000     0.000000     0.000000     0.000000
 
 Subroutine IBZKPT returns following result:
 ===========================================
 
 Found      8 irreducible k-points:
 
 Following reciprocal coordinates:
            Coordinates               Weight
  0.000000  0.000000  0.000000      1.000000
  0.500000  0.000000  0.000000      1.000000
  0.000000  0.500000  0.000000      1.000000
  0.500000  0.500000  0.000000      1.000000
  0.000000  0.000000  0.500000      1.000000
  0.500000  0.000000  0.500000      1.000000
  0.000000  0.500000  0.500000      1.000000
  0.500000  0.500000  0.500000      1.000000
 
 Following cartesian coordinates:
            Coordinates               Weight
  0.000000  0.000000  0.000000      1.000000
  0.064345 -0.000000  0.000000      1.000000
 -0.000000  0.074299  0.000000      1.000000
  0.064345  0.074299  0.000000      1.000000
  0.000000  0.000000  0.045047      1.000000
  0.064345 -0.000000  0.045047      1.000000
 -0.000000  0.074299  0.045047      1.000000
  0.064345  0.074299  0.045047      1.000000
 


--------------------------------------------------------------------------------------------------------




 Dimension of arrays:
   k-points           NKPTS =      8   k-points in BZ     NKDIM =      8   number of bands    NBANDS=     97
   number of dos      NEDOS =    301   number of ions     NIONS =     19
   non local maximal  LDIM  =      7   non local SUM 2l+1 LMDIM =     25
   total plane-waves  NPLWV = 252000
   max r-space proj   IRMAX =   8612   max aug-charges    IRDMAX=  31495
   dimension x,y,z NGX =    60 NGY =   50 NGZ =   84
   dimension x,y,z NGXF=   120 NGYF=  100 NGZF=  168
   support grid    NGXF=   120 NGYF=  100 NGZF=  168
   ions per type =               8   4   7
   NGX,Y,Z   is equivalent  to a cutoff of  12.84, 12.35, 12.58 a.u.
   NGXF,Y,Z  is equivalent  to a cutoff of  25.67, 24.70, 25.16 a.u.

 SYSTEM =  unknown system                          
 POSCAR =  Y8 C4 I7                                

 Startparameter for this run:
   NWRITE =      2    write-flag & timer
   PREC   = accura    normal or accurate (medium, high low for compatibility)
   ISTART =      0    job   : 0-new  1-cont  2-samecut
   ICHARG =      1    charge: 1-file 2-atom 10-const
   ISPIN  =      2    spin polarized calculation?
   LNONCOLLINEAR =      F non collinear calculations
   LSORBIT =      F    spin-orbit coupling
   INIWAV =      1    electr: 0-lowe 1-rand  2-diag
   LASPH  =      F    aspherical Exc in radial PAW
   METAGGA=      F    non-selfconsistent MetaGGA calc.

 Electronic Relaxation 1
   ENCUT  =  520.0 eV  38.22 Ry    6.18 a.u.  14.45 12.51 20.64*2*pi/ulx,y,z
   ENINI  =  520.0     initial cutoff
   ENAUG  =  644.9 eV  augmentation charge cutoff
   NELM   =    200;   NELMIN=  4; NELMDL= -5     # of ELM steps 
   EDIFF  = 0.1E-04   stopping-criterion for ELM
   LREAL  =      T    real-space projection
   NLSPLINE    = F    spline interpolate recip. space projectors
   LCOMPAT=      F    compatible to vasp.4.4
   GGA_COMPAT  = T    GGA compatible to vasp.4.4-vasp.4.6
   LMAXPAW     = -100 max onsite density
   LMAXMIX     =    2 max onsite mixed and CHGCAR
   VOSKOWN=      0    Vosko Wilk Nusair interpolation
   ROPT   =   -0.00025  -0.00025  -0.00025
 Ionic relaxation
   EDIFFG = -.2E-01   stopping-criterion for IOM
   NSW    =     99    number of steps for IOM
   NBLOCK =      1;   KBLOCK =     99    inner block; outer block 
   IBRION =      1    ionic relax: 0-MD 1-quasi-New 2-CG
   NFREE  =      0    steps in history (QN), initial steepest desc. (CG)
   ISIF   =      2    stress and relaxation
   IWAVPR =     11    prediction:  0-non 1-charg 2-wave 3-comb
   ISYM   =      0    0-nonsym 1-usesym 2-fastsym
   LCORR  =      T    Harris-Foulkes like correction to forces

   POTIM  = 0.5000    time-step for ionic-motion
   TEIN   =    0.0    initial temperature
   TEBEG  =    0.0;   TEEND  =   0.0 temperature during run
   SMASS  =  -3.00    Nose mass-parameter (am)
   estimated Nose-frequenzy (Omega)   =  0.10E-29 period in steps =****** mass=  -0.138E-26a.u.
   SCALEE = 1.0000    scale energy and forces
   NPACO  =    256;   APACO  = 16.0  distance and # of slots for P.C.
   PSTRESS=    0.0 pullay stress

  Mass of Ions in am
   POMASS =  88.91 12.01126.90
  Ionic Valenz
   ZVAL   =  11.00  4.00  7.00
  Atomic Wigner-Seitz radii
   RWIGS  =  -1.00 -1.00 -1.00
  virtual crystal weights 
   VCA    =   1.00  1.00  1.00
   NELECT =     153.0000    total number of electrons
   NUPDOWN=      -1.0000    fix difference up-down

 DOS related values:
   EMIN   =  10.00;   EMAX   =-10.00  energy-range for DOS
   EFERMI =   0.00
   ISMEAR =     0;   SIGMA  =   0.20  broadening in eV -4-tet -1-fermi 0-gaus

 Electronic relaxation 2 (details)
   IALGO  =     38    algorithm
   LDIAG  =      T    sub-space diagonalisation (order eigenvalues)
   LSUBROT=      F    optimize rotation matrix (better conditioning)
   TURBO    =      0    0=normal 1=particle mesh
   IRESTART =      0    0=no restart 2=restart with 2 vectors
   NREBOOT  =      0    no. of reboots
   NMIN     =      0    reboot dimension
   EREF     =   0.00    reference energy to select bands
   IMIX   =      4    mixing-type and parameters
     AMIX     =   0.40;   BMIX     =  1.00
     AMIX_MAG =   1.60;   BMIX_MAG =  1.00
     AMIN     =   0.10
     WC   =   100.;   INIMIX=   1;  MIXPRE=   1;  MAXMIX= -45

 Intra band minimization:
   WEIMIN = 0.0010     energy-eigenvalue tresh-hold
   EBREAK =  0.26E-07  absolut break condition
   DEPER  =   0.30     relativ break condition  

   TIME   =   0.40     timestep for ELM

  volume/ion in A,a.u.               =      30.55       206.16
  Fermi-wavevector in a.u.,A,eV,Ry     =   1.049675  1.983598 14.991144  1.101818
  Thomas-Fermi vector in A             =   2.184647

 Write flags
   LWAVE        =      F    write WAVECAR
   LDOWNSAMPLE  =      F    k-point downsampling of WAVECAR
   LCHARG       =      T    write CHGCAR
   LVTOT        =      F    write LOCPOT, total local potential
   LVHAR        =      F    write LOCPOT, Hartree potential only
   LELF         =      F    write electronic localiz. function (ELF)
   LORBIT       =     11    0 simple, 1 ext, 2 COOP (PROOUT), +10 PAW based schemes


 Dipole corrections
   LMONO  =      F    monopole corrections only (constant potential shift)
   LDIPOL =      F    correct potential (dipole corrections)
   IDIPOL =      0    1-x, 2-y, 3-z, 4-all directions 
   EPSILON=  1.0000000 bulk dielectric constant

 Exchange correlation treatment:
   GGA     =    --    GGA type
   LEXCH   =     8    internal setting for exchange type
   VOSKOWN=      0    Vosko Wilk Nusair interpolation
   LHFCALC =     F    Hartree Fock is set to
   LHFONE  =     F    Hartree Fock one center treatment
   AEXX    =    0.0000 exact exchange contribution

 Linear response parameters
   LEPSILON=     F    determine dielectric tensor
   LRPA    =     F    only Hartree local field effects (RPA)
   LNABLA  =     F    use nabla operator in PAW spheres
   LVEL    =     F    velocity operator in full k-point grid
   LINTERFAST=   F  fast interpolation
   KINTER  =     0    interpolate to denser k-point grid
   CSHIFT  =0.1000    complex shift for real part using Kramers Kronig
   OMEGAMAX=  -1.0    maximum frequency
   DEG_THRESHOLD= 0.2000000E-02 threshold for treating states as degnerate
   RTIME   =   -0.100 relaxation time in fs
  (WPLASMAI=    0.000 imaginary part of plasma frequency in eV, 0.658/RTIME)
   DFIELD  = 0.0000000 0.0000000 0.0000000 field for delta impulse in time

 Orbital magnetization related:
   ORBITALMAG=     F  switch on orbital magnetization
   LCHIMAG   =     F  perturbation theory with respect to B field
   DQ        =  0.001000  dq finite difference perturbation B field
   LLRAUG    =     F  two centre corrections for induced B field



--------------------------------------------------------------------------------------------------------


 quasi-Newton-method for relaxation of ions
 charge density and potential will be updated during run
 spin polarized calculation
 Variant of blocked Davidson
 Davidson routine will perform the subspace rotation
 perform sub-space diagonalisation
    after iterative eigenvector-optimisation
 modified Broyden-mixing scheme, WC =      100.0
 initial mixing is a Kerker type mixing with AMIX =  0.4000 and BMIX =      1.0000
 Hartree-type preconditioning will be used
 using additional bands           20
 real space projection scheme for non local part
 use partial core corrections
 calculate Harris-corrections to forces   (improved forces if not selfconsistent)
 use gradient corrections 
 use of overlap-Matrix (Vanderbilt PP)
 Gauss-broadening in eV      SIGMA  =   0.20


--------------------------------------------------------------------------------------------------------


  energy-cutoff  :      520.00
  volume of cell :      580.43
      direct lattice vectors                 reciprocal lattice vectors
     7.770644000  0.000004000  0.000000000     0.128689463 -0.000000038  0.000000012
     0.000002000  6.729576000  0.000000000    -0.000000076  0.148597772  0.000000013
    -0.000001000 -0.000001000 11.099577000     0.000000000  0.000000000  0.090093523

  length of vectors
     7.770644000  6.729576000 11.099577000     0.128689463  0.148597772  0.090093523



 k-points in units of 2pi/SCALE and weight: read from INCAR                         
   0.00000000  0.00000000  0.00000000       0.125
   0.06434473 -0.00000002  0.00000001       0.125
  -0.00000004  0.07429889  0.00000001       0.125
   0.06434469  0.07429887  0.00000001       0.125
   0.00000000  0.00000000  0.04504676       0.125
   0.06434473 -0.00000002  0.04504677       0.125
  -0.00000004  0.07429889  0.04504677       0.125
   0.06434469  0.07429887  0.04504677       0.125

 k-points in reciprocal lattice and weights: read from INCAR                         
   0.00000000  0.00000000  0.00000000       0.125
   0.50000000  0.00000000  0.00000000       0.125
   0.00000000  0.50000000  0.00000000       0.125
   0.50000000  0.50000000  0.00000000       0.125
   0.00000000  0.00000000  0.50000000       0.125
   0.50000000  0.00000000  0.50000000       0.125
   0.00000000  0.50000000  0.50000000       0.125
   0.50000000  0.50000000  0.50000000       0.125

 position of ions in fractional coordinates (direct lattice) 
   0.99354200  0.33425000  0.11746200
   0.50059200  0.33692300  0.11969600
   0.24469500  0.83104100  0.12111500
   0.74829000  0.83205500  0.11970000
   0.24845900  0.15082200  0.90031700
   0.72656100  0.16937900  0.87936700
   0.49845200  0.67249700  0.88842400
   0.99529300  0.67652200  0.88653800
   0.98806100  0.00317900  0.99605300
   0.49932100  0.00040300  0.00225600
   0.24663900  0.49883800  0.99998600
   0.74610400  0.49777300  0.99254700
   0.24763700  0.16510300  0.30904600
   0.74565800  0.16850000  0.31479300
   0.50055500  0.66887900  0.31211500
   0.99656100  0.66739000  0.31236700
   0.31024600  0.33218900  0.66805600
   0.24587800  0.81300800  0.68797200
   0.73886600  0.84792000  0.68498800

 position of ions in cartesian coordinates  (Angst):
   7.72046173  2.24936463  1.30377851
   3.88992278  2.26735082  1.32857497
   1.90143927  5.59255443  1.34432527
   5.81469674  5.59938023  1.32861937
   1.93068584  1.01496820  9.99313787
   5.64584633  1.13985088  9.76060173
   3.87329350  4.52562078  9.86113060
   7.73406805  4.55270931  9.84019679
   7.67786929  0.02139628 11.05576697
   3.88004573  0.00271401  0.02504065
   1.91654386  3.35696822 11.09942161
   5.79770857  3.34980323 11.01685185
   1.92429899  1.11107387  3.43027987
   5.79424289  1.13393622  3.49406914
   3.88963573  4.50127376  3.46434448
   7.74392178  4.49125540  3.46714157
   2.41081121  2.23549169  7.41513901
   1.91063134  5.47119942  7.63619819
   5.74146566  5.70614435  7.60307705



--------------------------------------------------------------------------------------------------------


 k-point  1 :   0.0000 0.0000 0.0000  plane waves:   15669
 k-point  2 :   0.5000 0.0000 0.0000  plane waves:   15660
 k-point  3 :   0.0000 0.5000 0.0000  plane waves:   15674
 k-point  4 :   0.5000 0.5000 0.0000  plane waves:   15604
 k-point  5 :   0.0000 0.0000 0.5000  plane waves:   15634
 k-point  6 :   0.5000 0.0000 0.5000  plane waves:   15620
 k-point  7 :   0.0000 0.5000 0.5000  plane waves:   15576
 k-point  8 :   0.5000 0.5000 0.5000  plane waves:   15592

 maximum and minimum number of plane-waves per node :      5250     5163

 maximum number of plane-waves:     15674
 maximum index in each direction: 
   IXMAX=   14   IYMAX=   12   IZMAX=   20
   IXMIN=  -14   IYMIN=  -13   IZMIN=  -21


 real space projection operators:
  total allocation   :      16946.95 KBytes
  max/ min on nodes  :       5673.84       5633.18


 parallel 3D FFT for wavefunctions:
    minimum data exchange during FFTs selected (reduces bandwidth)
 parallel 3D FFT for charge:
    minimum data exchange during FFTs selected (reduces bandwidth)


 total amount of memory used by VASP MPI-rank0   265331. kBytes
=======================================================================

   base      :      30000. kBytes
   nonlr-proj:       9752. kBytes
   fftplans  :      25286. kBytes
   grid      :      66476. kBytes
   one-center:        420. kBytes
   wavefun   :     133397. kBytes

     INWAV:  cpu time    0.0000: real time    0.0000
 Broyden mixing: mesh for mixing (old mesh)
   NGX = 29   NGY = 25   NGZ = 41
  (NGX  =120   NGY  =100   NGZ  =168)
  gives a total of  29725 points

 initial charge density was supplied:
 charge density of overlapping atoms calculated
 number of electron     153.0000000 magnetization      11.4000000
 keeping initial charge density in first step


--------------------------------------------------------------------------------------------------------


 Maximum index for non-local projection operator         2785
 Maximum index for augmentation-charges        10171 (set IRDMAX)


--------------------------------------------------------------------------------------------------------


 First call to EWALD:  gamma=   0.212
 Maximum number of real-space cells 3x 3x 2
 Maximum number of reciprocal cells 3x 2x 3

    FEWALD:  cpu time    0.0017: real time    0.0017


--------------------------------------- Iteration      1(   1)  ---------------------------------------


    POTLOK:  cpu time    1.6798: real time    1.6901
    SETDIJ:  cpu time    0.1189: real time    0.1195
     EDDAV:  cpu time   53.9714: real time   54.3158
       DOS:  cpu time    0.0038: real time    0.0039
    --------------------------------------------
      LOOP:  cpu time   55.7739: real time   56.1293

 eigenvalue-minimisations  :  3104
 total energy-change (2. order) : 0.1044597E+04  (-0.6847604E+04)
 number of electron     153.0000000 magnetization      11.4000000
 augmentation part      153.0000000 magnetization      11.4000000

 Free energy of the ion-electron system (eV)
  ---------------------------------------------------
  alpha Z        PSCENC =       490.14769152
  Ewald energy   TEWEN  =     -5502.63369141
  -Hartree energ DENC   =     -5181.95075688
  -exchange      EXHF   =         0.00000000
  -V(xc)+E(xc)   XCENC  =       295.83915823
  PAW double counting   =      8755.10086986    -8465.77839650
  entropy T*S    EENTRO =        -0.12519511
  eigenvalues    EBANDS =      -520.97179775
  atomic energy  EATOM  =     11174.96942390
  Solvation  Ediel_sol  =         0.00000000
  ---------------------------------------------------
  free energy    TOTEN  =      1044.59730586 eV

  energy without entropy =     1044.72250097  energy(sigma->0) =     1044.65990342


--------------------------------------------------------------------------------------------------------




--------------------------------------- Iteration      1(   2)  ---------------------------------------


     EDDAV:  cpu time   65.7068: real time   66.1328
       DOS:  cpu time    0.0051: real time    0.0051
    --------------------------------------------
      LOOP:  cpu time   65.7119: real time   66.1380

 eigenvalue-minimisations  :  3674
 total energy-change (2. order) :-0.1055564E+04  (-0.1012151E+04)
 number of electron     153.0000000 magnetization      11.4000000
 augmentation part      153.0000000 magnetization      11.4000000

 Free energy of the ion-electron system (eV)
  ---------------------------------------------------
  alpha Z        PSCENC =       490.14769152
  Ewald energy   TEWEN  =     -5502.63369141
  -Hartree energ DENC   =     -5181.95075688
  -exchange      EXHF   =         0.00000000
  -V(xc)+E(xc)   XCENC  =       295.83915823
  PAW double counting   =      8755.10086986    -8465.77839650
  entropy T*S    EENTRO =        -0.11697406
  eigenvalues    EBANDS =     -1576.54399014
  atomic energy  EATOM  =     11174.96942390
  Solvation  Ediel_sol  =         0.00000000
  ---------------------------------------------------
  free energy    TOTEN  =       -10.96666548 eV

  energy without entropy =      -10.84969142  energy(sigma->0) =      -10.90817845


--------------------------------------------------------------------------------------------------------




--------------------------------------- Iteration      1(   3)  ---------------------------------------


     EDDAV:  cpu time   73.5878: real time   74.0691
       DOS:  cpu time    0.0044: real time    0.0044
    --------------------------------------------
      LOOP:  cpu time   73.5922: real time   74.0735

 eigenvalue-minimisations  :  4272
 total energy-change (2. order) :-0.1145068E+03  (-0.1128814E+03)
 number of electron     153.0000000 magnetization      11.4000000
 augmentation part      153.0000000 magnetization      11.4000000

 Free energy of the ion-electron system (eV)
  ---------------------------------------------------
  alpha Z        PSCENC =       490.14769152
  Ewald energy   TEWEN  =     -5502.63369141
  -Hartree energ DENC   =     -5181.95075688
  -exchange      EXHF   =         0.00000000
  -V(xc)+E(xc)   XCENC  =       295.83915823
  PAW double counting   =      8755.10086986    -8465.77839650
  entropy T*S    EENTRO =        -0.11434023
  eigenvalues    EBANDS =     -1691.05337828
  atomic energy  EATOM  =     11174.96942390
  Solvation  Ediel_sol  =         0.00000000
  ---------------------------------------------------
  free energy    TOTEN  =      -125.47341978 eV

  energy without entropy =     -125.35907955  energy(sigma->0) =     -125.41624967


--------------------------------------------------------------------------------------------------------




--------------------------------------- Iteration      1(   4)  ---------------------------------------


     EDDAV:  cpu time   85.7183: real time   86.2757
       DOS:  cpu time    0.0038: real time    0.0038
    --------------------------------------------
      LOOP:  cpu time   85.7221: real time   86.2795

 eigenvalue-minimisations  :  5296
 total energy-change (2. order) :-0.1166577E+02  (-0.1162366E+02)
 number of electron     153.0000000 magnetization      11.4000000
 augmentation part      153.0000000 magnetization      11.4000000

 Free energy of the ion-electron system (eV)
  ---------------------------------------------------
  alpha Z        PSCENC =       490.14769152
  Ewald energy   TEWEN  =     -5502.63369141
  -Hartree energ DENC   =     -5181.95075688
  -exchange      EXHF   =         0.00000000
  -V(xc)+E(xc)   XCENC  =       295.83915823
  PAW double counting   =      8755.10086986    -8465.77839650
  entropy T*S    EENTRO =        -0.11627025
  eigenvalues    EBANDS =     -1702.71721495
  atomic energy  EATOM  =     11174.96942390
  Solvation  Ediel_sol  =         0.00000000
  ---------------------------------------------------
  free energy    TOTEN  =      -137.13918648 eV

  energy without entropy =     -137.02291623  energy(sigma->0) =     -137.08105135


--------------------------------------------------------------------------------------------------------




--------------------------------------- Iteration      1(   5)  ---------------------------------------


     EDDAV:  cpu time   82.2074: real time   82.7470
       DOS:  cpu time    0.0048: real time    0.0049
    CHARGE:  cpu time    2.9120: real time    2.9295
    MIXING:  cpu time    0.0359: real time    0.0362
    --------------------------------------------
      LOOP:  cpu time   85.1603: real time   85.7177

 eigenvalue-minimisations  :  4944
 total energy-change (2. order) :-0.8784834E+00  (-0.8780171E+00)
 number of electron     153.0000005 magnetization       7.2742156
 augmentation part        6.5278538 magnetization       6.5799158

 Broyden mixing:
  rms(total) = 0.79145E+01    rms(broyden)= 0.79144E+01
  rms(prec ) = 0.83700E+01
  weight for this iteration     100.00

 Free energy of the ion-electron system (eV)
  ---------------------------------------------------
  alpha Z        PSCENC =       490.14769152
  Ewald energy   TEWEN  =     -5502.63369141
  -Hartree energ DENC   =     -5181.95075688
  -exchange      EXHF   =         0.00000000
  -V(xc)+E(xc)   XCENC  =       295.83915823
  PAW double counting   =      8755.10086986    -8465.77839650
  entropy T*S    EENTRO =        -0.11602709
  eigenvalues    EBANDS =     -1703.59594151
  atomic energy  EATOM  =     11174.96942390
  Solvation  Ediel_sol  =         0.00000000
  ---------------------------------------------------
  free energy    TOTEN  =      -138.01766988 eV

  energy without entropy =     -137.90164279  energy(sigma->0) =     -137.95965634


--------------------------------------------------------------------------------------------------------




--------------------------------------- Iteration      1(   6)  ---------------------------------------


    POTLOK:  cpu time    1.9964: real time    2.0098
    SETDIJ:  cpu time    0.1655: real time    0.1664
     EDDAV:  cpu time   70.7030: real time   71.1573
       DOS:  cpu time    0.0041: real time    0.0041
    CHARGE:  cpu time    2.8506: real time    2.8668
    MIXING:  cpu time    0.0319: real time    0.0322
    --------------------------------------------
      LOOP:  cpu time   75.7515: real time   76.2367

 eigenvalue-minimisations  :  3927
 total energy-change (2. order) : 0.2382778E+02  (-0.1265105E+02)
 number of electron     153.0000003 magnetization       4.2750871
 augmentation part        6.5500513 magnetization       3.6756814

 Broyden mixing:
  rms(total) = 0.67361E+01    rms(broyden)= 0.67361E+01
  rms(prec ) = 0.67614E+01
  weight for this iteration     100.00

 eigenvalues of (default mixing * dielectric matrix)
  average eigenvalue GAMMA=   1.2354
  1.2354

 Free energy of the ion-electron system (eV)
  ---------------------------------------------------
  alpha Z        PSCENC =       490.14769152
  Ewald energy   TEWEN  =     -5502.63369141
  -Hartree energ DENC   =     -5191.62996973
  -exchange      EXHF   =         0.00000000
  -V(xc)+E(xc)   XCENC  =       296.38782171
  PAW double counting   =     11013.40498857   -10739.34144353
  entropy T*S    EENTRO =        -0.05718635
  eigenvalues    EBANDS =     -1655.43752616
  atomic energy  EATOM  =     11174.96942390
  Solvation  Ediel_sol  =         0.00000000
  ---------------------------------------------------
  free energy    TOTEN  =      -114.18989149 eV

  energy without entropy =     -114.13270513  energy(sigma->0) =     -114.16129831


--------------------------------------------------------------------------------------------------------




--------------------------------------- Iteration      1(   7)  ---------------------------------------


    POTLOK:  cpu time    2.0949: real time    2.1092
    SETDIJ:  cpu time    0.1508: real time    0.1517
     EDDAV:  cpu time   73.1605: real time   73.6290
       DOS:  cpu time    0.0042: real time    0.0042
    CHARGE:  cpu time    2.9056: real time    2.9220
    MIXING:  cpu time    0.0396: real time    0.0398
    --------------------------------------------
      LOOP:  cpu time   78.3555: real time   78.8559

 eigenvalue-minimisations  :  4152
 total energy-change (2. order) :-0.1300304E+01  (-0.2093750E+01)
 number of electron     153.0000003 magnetization       1.0635212
 augmentation part        5.3572775 magnetization       0.6113600

 Broyden mixing:
  rms(total) = 0.36901E+01    rms(broyden)= 0.36901E+01
  rms(prec ) = 0.37067E+01
  weight for this iteration     100.00

 eigenvalues of (default mixing * dielectric matrix)
  average eigenvalue GAMMA=   1.5859
  0.7152  2.4566

 Free energy of the ion-electron system (eV)
  ---------------------------------------------------
  alpha Z        PSCENC =       490.14769152
  Ewald energy   TEWEN  =     -5502.63369141
  -Hartree energ DENC   =     -5173.17631322
  -exchange      EXHF   =         0.00000000
  -V(xc)+E(xc)   XCENC  =       294.53359882
  PAW double counting   =     13111.86241171   -12847.08417519
  entropy T*S    EENTRO =        -0.06531757
  eigenvalues    EBANDS =     -1664.04382450
  atomic energy  EATOM  =     11174.96942390
  Solvation  Ediel_sol  =         0.00000000
  ---------------------------------------------------
  free energy    TOTEN  =      -115.49019594 eV

  energy without entropy =     -115.42487837  energy(sigma->0) =     -115.45753716


--------------------------------------------------------------------------------------------------------




--------------------------------------- Iteration      1(   8)  ---------------------------------------


    POTLOK:  cpu time    2.0992: real time    2.1137
    SETDIJ:  cpu time    0.1659: real time    0.1669
     EDDAV:  cpu time   72.4776: real time   72.9330
       DOS:  cpu time    0.0045: real time    0.0045
    CHARGE:  cpu time    2.9276: real time    2.9441
    MIXING:  cpu time    0.0319: real time    0.0321
    --------------------------------------------
      LOOP:  cpu time   77.7067: real time   78.1944

 eigenvalue-minimisations  :  4056
 total energy-change (2. order) :-0.4243583E+00  (-0.6733761E+00)
 number of electron     153.0000003 magnetization       0.7056650
 augmentation part        5.2014517 magnetization       0.3816819

 Broyden mixing:
  rms(total) = 0.11332E+01    rms(broyden)= 0.11332E+01
  rms(prec ) = 0.11905E+01
  weight for this iteration     100.00

 eigenvalues of (default mixing * dielectric matrix)
  average eigenvalue GAMMA=   1.3233
  2.4161  0.9262  0.6275

 Free energy of the ion-electron system (eV)
  ---------------------------------------------------
  alpha Z        PSCENC =       490.14769152
  Ewald energy   TEWEN  =     -5502.63369141
  -Hartree energ DENC   =     -5185.10499677
  -exchange      EXHF   =         0.00000000
  -V(xc)+E(xc)   XCENC  =       294.23660672
  PAW double counting   =     15059.28339387   -14789.50731258
  entropy T*S    EENTRO =        -0.08831738
  eigenvalues    EBANDS =     -1657.21735207
  atomic energy  EATOM  =     11174.96942390
  Solvation  Ediel_sol  =         0.00000000
  ---------------------------------------------------
  free energy    TOTEN  =      -115.91455420 eV

  energy without entropy =     -115.82623682  energy(sigma->0) =     -115.87039551


--------------------------------------------------------------------------------------------------------




--------------------------------------- Iteration      1(   9)  ---------------------------------------


    POTLOK:  cpu time    2.1013: real time    2.1157
    SETDIJ:  cpu time    0.1731: real time    0.1742
     EDDAV:  cpu time   76.5761: real time   77.0623
       DOS:  cpu time    0.0040: real time    0.0040
    CHARGE:  cpu time    2.5900: real time    2.6047
    MIXING:  cpu time    0.0367: real time    0.0370
    --------------------------------------------
      LOOP:  cpu time   81.4812: real time   81.9978

 eigenvalue-minimisations  :  4304
 total energy-change (2. order) : 0.2586682E+00  (-0.1540259E+00)
 number of electron     153.0000003 magnetization       0.5572845
 augmentation part        4.9713352 magnetization       0.3370862

 Broyden mixing:
  rms(total) = 0.27658E+00    rms(broyden)= 0.27658E+00
  rms(prec ) = 0.30277E+00
  weight for this iteration     100.00

 eigenvalues of (default mixing * dielectric matrix)
  average eigenvalue GAMMA=   1.2315
  2.3711  0.9706  0.9706  0.6137

 Free energy of the ion-electron system (eV)
  ---------------------------------------------------
  alpha Z        PSCENC =       490.14769152
  Ewald energy   TEWEN  =     -5502.63369141
  -Hartree energ DENC   =     -5193.52689281
  -exchange      EXHF   =         0.00000000
  -V(xc)+E(xc)   XCENC  =       294.60504578
  PAW double counting   =     15168.94178785   -14896.95491921
  entropy T*S    EENTRO =        -0.08201282
  eigenvalues    EBANDS =     -1651.12231884
  atomic energy  EATOM  =     11174.96942390
  Solvation  Ediel_sol  =         0.00000000
  ---------------------------------------------------
  free energy    TOTEN  =      -115.65588603 eV

  energy without entropy =     -115.57387321  energy(sigma->0) =     -115.61487962


--------------------------------------------------------------------------------------------------------




--------------------------------------- Iteration      1(  10)  ---------------------------------------


    POTLOK:  cpu time    1.9363: real time    1.9495
    SETDIJ:  cpu time    0.1460: real time    0.1469
     EDDAV:  cpu time   71.5132: real time   71.9646
       DOS:  cpu time    0.0051: real time    0.0051
    CHARGE:  cpu time    2.4720: real time    2.4855
    MIXING:  cpu time    0.0393: real time    0.0396
    --------------------------------------------
      LOOP:  cpu time   76.1121: real time   76.5912

 eigenvalue-minimisations  :  4072
 total energy-change (2. order) :-0.1471658E-01  (-0.3780338E-01)
 number of electron     153.0000003 magnetization       0.3679607
 augmentation part        4.8864058 magnetization       0.2042290

 Broyden mixing:
  rms(total) = 0.14749E+00    rms(broyden)= 0.14748E+00
  rms(prec ) = 0.16969E+00
  weight for this iteration     100.00

 eigenvalues of (default mixing * dielectric matrix)
  average eigenvalue GAMMA=   1.2519
  2.2677  1.6836  0.8412  0.8412  0.6257

 Free energy of the ion-electron system (eV)
  ---------------------------------------------------
  alpha Z        PSCENC =       490.14769152
  Ewald energy   TEWEN  =     -5502.63369141
  -Hartree energ DENC   =     -5201.59072503
  -exchange      EXHF   =         0.00000000
  -V(xc)+E(xc)   XCENC  =       294.98152951
  PAW double counting   =     15159.99453356   -14884.20112282
  entropy T*S    EENTRO =        -0.08063054
  eigenvalues    EBANDS =     -1647.25761130
  atomic energy  EATOM  =     11174.96942390
  Solvation  Ediel_sol  =         0.00000000
  ---------------------------------------------------
  free energy    TOTEN  =      -115.67060261 eV

  energy without entropy =     -115.58997207  energy(sigma->0) =     -115.63028734


--------------------------------------------------------------------------------------------------------




--------------------------------------- Iteration      1(  11)  ---------------------------------------


    POTLOK:  cpu time    2.0211: real time    2.0349
    SETDIJ:  cpu time    0.1718: real time    0.1728
     EDDAV:  cpu time   70.3086: real time   70.7553
       DOS:  cpu time    0.0039: real time    0.0039
    CHARGE:  cpu time    2.5185: real time    2.5320
    MIXING:  cpu time    0.0328: real time    0.0330
    --------------------------------------------
      LOOP:  cpu time   75.0565: real time   75.5317

 eigenvalue-minimisations  :  4048
 total energy-change (2. order) :-0.2404481E-02  (-0.9273209E-02)
 number of electron     153.0000003 magnetization       0.2326119
 augmentation part        4.8995625 magnetization       0.1341699

 Broyden mixing:
  rms(total) = 0.54134E-01    rms(broyden)= 0.54133E-01
  rms(prec ) = 0.64754E-01
  weight for this iteration     100.00

 eigenvalues of (default mixing * dielectric matrix)
  average eigenvalue GAMMA=   1.2515
  2.1905  2.1905  0.8446  0.8446  0.6099  0.8291

 Free energy of the ion-electron system (eV)
  ---------------------------------------------------
  alpha Z        PSCENC =       490.14769152
  Ewald energy   TEWEN  =     -5502.63369141
  -Hartree energ DENC   =     -5210.14405180
  -exchange      EXHF   =         0.00000000
  -V(xc)+E(xc)   XCENC  =       295.32721162
  PAW double counting   =     15130.31337519   -14849.53629937
  entropy T*S    EENTRO =        -0.08272831
  eigenvalues    EBANDS =     -1644.03393842
  atomic energy  EATOM  =     11174.96942390
  Solvation  Ediel_sol  =         0.00000000
  ---------------------------------------------------
  free energy    TOTEN  =      -115.67300709 eV

  energy without entropy =     -115.59027878  energy(sigma->0) =     -115.63164294


--------------------------------------------------------------------------------------------------------




--------------------------------------- Iteration      1(  12)  ---------------------------------------


    POTLOK:  cpu time    1.7395: real time    1.7502
    SETDIJ:  cpu time    0.1304: real time    0.1311
     EDDAV:  cpu time   73.0039: real time   73.4803
       DOS:  cpu time    0.0041: real time    0.0041
    CHARGE:  cpu time    2.4132: real time    2.4261
    MIXING:  cpu time    0.0431: real time    0.0435
    --------------------------------------------
      LOOP:  cpu time   77.3342: real time   77.8353

 eigenvalue-minimisations  :  4200
 total energy-change (2. order) :-0.2238933E-02  (-0.1040375E-02)
 number of electron     153.0000003 magnetization       0.1540427
 augmentation part        4.9242712 magnetization       0.0931634

 Broyden mixing:
  rms(total) = 0.32645E-01    rms(broyden)= 0.32645E-01
  rms(prec ) = 0.38288E-01
  weight for this iteration     100.00

 eigenvalues of (default mixing * dielectric matrix)
  average eigenvalue GAMMA=   1.2337
  2.2389  2.2389  1.2293  0.8503  0.8503  0.6141  0.6141

 Free energy of the ion-electron system (eV)
  ---------------------------------------------------
  alpha Z        PSCENC =       490.14769152
  Ewald energy   TEWEN  =     -5502.63369141
  -Hartree energ DENC   =     -5213.10826658
  -exchange      EXHF   =         0.00000000
  -V(xc)+E(xc)   XCENC  =       295.45163111
  PAW double counting   =     15150.19436956   -14868.07353331
  entropy T*S    EENTRO =        -0.08412460
  eigenvalues    EBANDS =     -1642.53874622
  atomic energy  EATOM  =     11174.96942390
  Solvation  Ediel_sol  =         0.00000000
  ---------------------------------------------------
  free energy    TOTEN  =      -115.67524602 eV

  energy without entropy =     -115.59112142  energy(sigma->0) =     -115.63318372


--------------------------------------------------------------------------------------------------------




--------------------------------------- Iteration      1(  13)  ---------------------------------------


    POTLOK:  cpu time    1.8071: real time    1.8185
    SETDIJ:  cpu time    0.1424: real time    0.1432
     EDDAV:  cpu time   74.7873: real time   75.2762
       DOS:  cpu time    0.0037: real time    0.0037
    CHARGE:  cpu time    2.5853: real time    2.6000
    MIXING:  cpu time    0.0381: real time    0.0384
    --------------------------------------------
      LOOP:  cpu time   79.3639: real time   79.8800

 eigenvalue-minimisations  :  4320
 total energy-change (2. order) :-0.1474902E-02  (-0.2937814E-03)
 number of electron     153.0000003 magnetization       0.0816711
 augmentation part        4.9322956 magnetization       0.0363377

 Broyden mixing:
  rms(total) = 0.15956E-01    rms(broyden)= 0.15956E-01
  rms(prec ) = 0.20983E-01
  weight for this iteration     100.00

 eigenvalues of (default mixing * dielectric matrix)
  average eigenvalue GAMMA=   1.2687
  2.3733  2.3733  1.3235  1.1623  0.8424  0.8424  0.6299  0.6025

 Free energy of the ion-electron system (eV)
  ---------------------------------------------------
  alpha Z        PSCENC =       490.14769152
  Ewald energy   TEWEN  =     -5502.63369141
  -Hartree energ DENC   =     -5214.32018890
  -exchange      EXHF   =         0.00000000
  -V(xc)+E(xc)   XCENC  =       295.49515842
  PAW double counting   =     15162.45693415   -14880.01714286
  entropy T*S    EENTRO =        -0.08438063
  eigenvalues    EBANDS =     -1641.69052512
  atomic energy  EATOM  =     11174.96942390
  Solvation  Ediel_sol  =         0.00000000
  ---------------------------------------------------
  free energy    TOTEN  =      -115.67672092 eV

  energy without entropy =     -115.59234029  energy(sigma->0) =     -115.63453061


--------------------------------------------------------------------------------------------------------




--------------------------------------- Iteration      1(  14)  ---------------------------------------


    POTLOK:  cpu time    1.8697: real time    1.8822
    SETDIJ:  cpu time    0.1694: real time    0.1703
     EDDAV:  cpu time   68.8250: real time   69.2741
       DOS:  cpu time    0.0046: real time    0.0046
    CHARGE:  cpu time    2.4597: real time    2.4738
    MIXING:  cpu time    0.0390: real time    0.0392
    --------------------------------------------
      LOOP:  cpu time   73.3674: real time   73.8442

 eigenvalue-minimisations  :  3880
 total energy-change (2. order) :-0.1282011E-02  (-0.2314440E-03)
 number of electron     153.0000003 magnetization       0.0352824
 augmentation part        4.9363660 magnetization       0.0096082

 Broyden mixing:
  rms(total) = 0.93110E-02    rms(broyden)= 0.93108E-02
  rms(prec ) = 0.12546E-01
  weight for this iteration     100.00

 eigenvalues of (default mixing * dielectric matrix)
  average eigenvalue GAMMA=   1.3170
  2.5292  2.5292  1.6370  1.4084  0.8538  0.8538  0.8061  0.6176  0.6176

 Free energy of the ion-electron system (eV)
  ---------------------------------------------------
  alpha Z        PSCENC =       490.14769152
  Ewald energy   TEWEN  =     -5502.63369141
  -Hartree energ DENC   =     -5215.54385381
  -exchange      EXHF   =         0.00000000
  -V(xc)+E(xc)   XCENC  =       295.53557910
  PAW double counting   =     15165.31583934   -14882.57989290
  entropy T*S    EENTRO =        -0.08419377
  eigenvalues    EBANDS =     -1640.80490490
  atomic energy  EATOM  =     11174.96942390
  Solvation  Ediel_sol  =         0.00000000
  ---------------------------------------------------
  free energy    TOTEN  =      -115.67800293 eV

  energy without entropy =     -115.59380917  energy(sigma->0) =     -115.63590605


--------------------------------------------------------------------------------------------------------




--------------------------------------- Iteration      1(  15)  ---------------------------------------


    POTLOK:  cpu time    1.9391: real time    1.9527
    SETDIJ:  cpu time    0.1815: real time    0.1824
     EDDAV:  cpu time   68.3575: real time   68.8010
       DOS:  cpu time    0.0044: real time    0.0044
    CHARGE:  cpu time    2.5284: real time    2.5430
    MIXING:  cpu time    0.0454: real time    0.0457
    --------------------------------------------
      LOOP:  cpu time   73.0562: real time   73.5292

 eigenvalue-minimisations  :  3888
 total energy-change (2. order) :-0.5258119E-03  (-0.7204830E-04)
 number of electron     153.0000003 magnetization       0.0093668
 augmentation part        4.9413629 magnetization      -0.0012327

 Broyden mixing:
  rms(total) = 0.45910E-02    rms(broyden)= 0.45909E-02
  rms(prec ) = 0.62997E-02
  weight for this iteration     100.00

 eigenvalues of (default mixing * dielectric matrix)
  average eigenvalue GAMMA=   1.3415
  2.6877  2.3510  2.3510  1.4120  1.0133  0.8216  0.8216  0.6135  0.6860  0.6577

 Free energy of the ion-electron system (eV)
  ---------------------------------------------------
  alpha Z        PSCENC =       490.14769152
  Ewald energy   TEWEN  =     -5502.63369141
  -Hartree energ DENC   =     -5215.99819846
  -exchange      EXHF   =         0.00000000
  -V(xc)+E(xc)   XCENC  =       295.55123529
  PAW double counting   =     15168.20198737   -14885.55206442
  entropy T*S    EENTRO =        -0.08423673
  eigenvalues    EBANDS =     -1640.28067581
  atomic energy  EATOM  =     11174.96942390
  Solvation  Ediel_sol  =         0.00000000
  ---------------------------------------------------
  free energy    TOTEN  =      -115.67852875 eV

  energy without entropy =     -115.59429202  energy(sigma->0) =     -115.63641038


--------------------------------------------------------------------------------------------------------




--------------------------------------- Iteration      1(  16)  ---------------------------------------


    POTLOK:  cpu time    1.8420: real time    1.8545
    SETDIJ:  cpu time    0.1359: real time    0.1367
     EDDAV:  cpu time   62.1654: real time   62.5653
       DOS:  cpu time    0.0041: real time    0.0042
    CHARGE:  cpu time    3.0029: real time    3.0204
    MIXING:  cpu time    0.0426: real time    0.0428
    --------------------------------------------
      LOOP:  cpu time   67.1929: real time   67.6238

 eigenvalue-minimisations  :  3480
 total energy-change (2. order) :-0.1696076E-03  (-0.2977103E-04)
 number of electron     153.0000003 magnetization       0.0011145
 augmentation part        4.9428945 magnetization      -0.0025804

 Broyden mixing:
  rms(total) = 0.21684E-02    rms(broyden)= 0.21682E-02
  rms(prec ) = 0.28020E-02
  weight for this iteration     100.00

 eigenvalues of (default mixing * dielectric matrix)
  average eigenvalue GAMMA=   1.3683
  3.2064  2.3630  2.3630  1.6007  1.0138  0.8208  0.8208  0.8870  0.7334  0.6213
  0.6213

 Free energy of the ion-electron system (eV)
  ---------------------------------------------------
  alpha Z        PSCENC =       490.14769152
  Ewald energy   TEWEN  =     -5502.63369141
  -Hartree energ DENC   =     -5216.18247272
  -exchange      EXHF   =         0.00000000
  -V(xc)+E(xc)   XCENC  =       295.55725322
  PAW double counting   =     15168.85494137   -14886.33234817
  entropy T*S    EENTRO =        -0.08423396
  eigenvalues    EBANDS =     -1639.97526211
  atomic energy  EATOM  =     11174.96942390
  Solvation  Ediel_sol  =         0.00000000
  ---------------------------------------------------
  free energy    TOTEN  =      -115.67869835 eV

  energy without entropy =     -115.59446439  energy(sigma->0) =     -115.63658137


--------------------------------------------------------------------------------------------------------




--------------------------------------- Iteration      1(  17)  ---------------------------------------


    POTLOK:  cpu time    1.9622: real time    1.9759
    SETDIJ:  cpu time    0.1820: real time    0.1830
     EDDAV:  cpu time   57.8516: real time   58.2281
       DOS:  cpu time    0.0047: real time    0.0047
    CHARGE:  cpu time    2.8244: real time    2.8405
    MIXING:  cpu time    0.0447: real time    0.0451
    --------------------------------------------
      LOOP:  cpu time   62.8697: real time   63.2773

 eigenvalue-minimisations  :  3184
 total energy-change (2. order) :-0.3650009E-04  (-0.4862388E-05)
 number of electron     153.0000003 magnetization      -0.0006475
 augmentation part        4.9432704 magnetization      -0.0010212

 Broyden mixing:
  rms(total) = 0.12587E-02    rms(broyden)= 0.12586E-02
  rms(prec ) = 0.15116E-02
  weight for this iteration     100.00

 eigenvalues of (default mixing * dielectric matrix)
  average eigenvalue GAMMA=   1.3692
  3.3228  2.4206  2.4206  1.8029  1.0948  1.0948  0.8201  0.8201  0.7445  0.6546
  0.6171  0.6171

 Free energy of the ion-electron system (eV)
  ---------------------------------------------------
  alpha Z        PSCENC =       490.14769152
  Ewald energy   TEWEN  =     -5502.63369141
  -Hartree energ DENC   =     -5216.25119591
  -exchange      EXHF   =         0.00000000
  -V(xc)+E(xc)   XCENC  =       295.55904946
  PAW double counting   =     15167.24806342   -14884.77954034
  entropy T*S    EENTRO =        -0.08420786
  eigenvalues    EBANDS =     -1639.85432763
  atomic energy  EATOM  =     11174.96942390
  Solvation  Ediel_sol  =         0.00000000
  ---------------------------------------------------
  free energy    TOTEN  =      -115.67873485 eV

  energy without entropy =     -115.59452699  energy(sigma->0) =     -115.63663092


--------------------------------------------------------------------------------------------------------




--------------------------------------- Iteration      1(  18)  ---------------------------------------


    POTLOK:  cpu time    1.9171: real time    1.9306
    SETDIJ:  cpu time    0.1629: real time    0.1638
     EDDAV:  cpu time   47.2737: real time   47.5824
       DOS:  cpu time    0.0037: real time    0.0037
    --------------------------------------------
      LOOP:  cpu time   49.3573: real time   49.6805

 eigenvalue-minimisations  :  2432
 total energy-change (2. order) :-0.6780358E-05  (-0.5906866E-06)
 number of electron     153.0000003 magnetization      -0.0006475
 augmentation part        4.9432704 magnetization      -0.0010212

 Free energy of the ion-electron system (eV)
  ---------------------------------------------------
  alpha Z        PSCENC =       490.14769152
  Ewald energy   TEWEN  =     -5502.63369141
  -Hartree energ DENC   =     -5216.25905384
  -exchange      EXHF   =         0.00000000
  -V(xc)+E(xc)   XCENC  =       295.55886416
  PAW double counting   =     15166.18159523   -14883.73946994
  entropy T*S    EENTRO =        -0.08420824
  eigenvalues    EBANDS =     -1639.81989301
  atomic energy  EATOM  =     11174.96942390
  Solvation  Ediel_sol  =         0.00000000
  ---------------------------------------------------
  free energy    TOTEN  =      -115.67874163 eV

  energy without entropy =     -115.59453339  energy(sigma->0) =     -115.63663751


--------------------------------------------------------------------------------------------------------




 average (electrostatic) potential at core
  the test charge radii are     1.2780  0.6991  1.1875
  (the norm of the test charge is              1.0000)
       1 -36.8751       2 -36.8950       3 -36.9914       4 -36.9292       5 -36.6161
       6 -37.3989       7 -36.9431       8 -36.9963       9 -50.0068      10 -49.9963
      11 -49.9377      12 -50.0587      13 -92.6978      14 -92.7121      15 -92.7587
      16 -92.7747      17 -92.5471      18 -92.6682      19 -93.1416



 E-fermi :   3.5476     XC(G=0):  -8.6134     alpha+bet : -9.1734


 spin component 1

 k-point     1 :       0.0000    0.0000    0.0000
  band No.  band energies     occupation 
      1     -39.2838      1.00000
      2     -38.9013      1.00000
      3     -38.8771      1.00000
      4     -38.8411      1.00000
      5     -38.8160      1.00000
      6     -38.7878      1.00000
      7     -38.7640      1.00000
      8     -38.5355      1.00000
      9     -19.4114      1.00000
     10     -19.3187      1.00000
     11     -19.2812      1.00000
     12     -19.1393      1.00000
     13     -19.0968      1.00000
     14     -19.0930      1.00000
     15     -19.0342      1.00000
     16     -18.9777      1.00000
     17     -18.9401      1.00000
     18     -18.8890      1.00000
     19     -18.8731      1.00000
     20     -18.8490      1.00000
     21     -18.8324      1.00000
     22     -18.8210      1.00000
     23     -18.7914      1.00000
     24     -18.7759      1.00000
     25     -18.7554      1.00000
     26     -18.7233      1.00000
     27     -18.7162      1.00000
     28     -18.7080      1.00000
     29     -18.7031      1.00000
     30     -18.5822      1.00000
     31     -18.5195      1.00000
     32     -18.5086      1.00000
     33      -9.9863      1.00000
     34      -9.8941      1.00000
     35      -9.6371      1.00000
     36      -9.3140      1.00000
     37      -9.2750      1.00000
     38      -9.2442      1.00000
     39      -8.7955      1.00000
     40      -5.4190      1.00000
     41      -4.9812      1.00000
     42      -4.9157      1.00000
     43      -4.8018      1.00000
     44      -1.3269      1.00000
     45      -1.2558      1.00000
     46      -1.0160      1.00000
     47      -0.8160      1.00000
     48      -0.7279      1.00000
     49      -0.6965      1.00000
     50      -0.4908      1.00000
     51      -0.2154      1.00000
     52      -0.1331      1.00000
     53       0.0942      1.00000
     54       0.1293      1.00000
     55       0.2642      1.00000
     56       0.3056      1.00000
     57       0.3663      1.00000
     58       0.6426      1.00000
     59       0.7199      1.00000
     60       1.1833      1.00000
     61       1.2571      1.00000
     62       1.3831      1.00000
     63       1.5349      1.00000
     64       1.5372      1.00000
     65       1.6367      1.00000
     66       1.7499      1.00000
     67       1.7626      1.00000
     68       1.9164      1.00000
     69       1.9950      1.00000
     70       2.2369      1.00000
     71       2.3303      1.00000
     72       2.4690      1.00000
     73       2.5162      1.00000
     74       2.5673      1.00000
     75       2.6793      1.00000
     76       3.2809      0.97036
     77       3.4825      0.67745
     78       4.2573      0.00000
     79       4.4936      0.00000
     80       4.8004      0.00000
     81       4.8526      0.00000
     82       5.1991      0.00000
     83       5.2171      0.00000
     84       5.3632      0.00000
     85       5.6813      0.00000
     86       5.9256      0.00000
     87       6.4594      0.00000
     88       6.5896      0.00000
     89       6.6156      0.00000
     90       6.6512      0.00000
     91       6.7864      0.00000
     92       6.9245      0.00000
     93       6.9844      0.00000
     94       7.0911      0.00000
     95       7.1386      0.00000
     96       7.2530      0.00000
     97       7.3063      0.00000

 k-point     2 :       0.5000    0.0000    0.0000
  band No.  band energies     occupation 
      1     -39.2838      1.00000
      2     -38.8990      1.00000
      3     -38.8794      1.00000
      4     -38.8417      1.00000
      5     -38.8155      1.00000
      6     -38.7871      1.00000
      7     -38.7648      1.00000
      8     -38.5355      1.00000
      9     -19.4100      1.00000
     10     -19.3108      1.00000
     11     -19.2748      1.00000
     12     -19.1290      1.00000
     13     -19.0925      1.00000
     14     -19.0601      1.00000
     15     -18.9961      1.00000
     16     -18.9741      1.00000
     17     -18.9517      1.00000
     18     -18.9290      1.00000
     19     -18.8964      1.00000
     20     -18.8429      1.00000
     21     -18.8260      1.00000
     22     -18.8118      1.00000
     23     -18.7839      1.00000
     24     -18.7755      1.00000
     25     -18.7640      1.00000
     26     -18.7573      1.00000
     27     -18.7272      1.00000
     28     -18.7193      1.00000
     29     -18.7084      1.00000
     30     -18.5768      1.00000
     31     -18.5270      1.00000
     32     -18.5034      1.00000
     33      -9.8305      1.00000
     34      -9.7715      1.00000
     35      -9.7028      1.00000
     36      -9.6707      1.00000
     37      -9.2011      1.00000
     38      -9.1961      1.00000
     39      -8.8038      1.00000
     40      -5.2577      1.00000
     41      -5.1594      1.00000
     42      -4.9042      1.00000
     43      -4.7830      1.00000
     44      -1.2567      1.00000
     45      -0.8611      1.00000
     46      -0.8227      1.00000
     47      -0.5610      1.00000
     48      -0.4919      1.00000
     49      -0.3362      1.00000
     50      -0.2386      1.00000
     51      -0.1980      1.00000
     52      -0.1108      1.00000
     53      -0.0471      1.00000
     54      -0.0097      1.00000
     55       0.1319      1.00000
     56       0.2439      1.00000
     57       0.2894      1.00000
     58       0.5255      1.00000
     59       0.5941      1.00000
     60       0.6865      1.00000
     61       0.8172      1.00000
     62       1.4572      1.00000
     63       1.4822      1.00000
     64       1.5048      1.00000
     65       1.5637      1.00000
     66       1.6753      1.00000
     67       1.7599      1.00000
     68       1.8475      1.00000
     69       1.9129      1.00000
     70       1.9616      1.00000
     71       2.0365      1.00000
     72       2.2188      1.00000
     73       2.2876      1.00000
     74       2.3763      1.00000
     75       2.6312      1.00000
     76       3.2800      0.97076
     77       4.3997      0.00000
     78       4.5021      0.00000
     79       4.5756      0.00000
     80       4.6253      0.00000
     81       4.9370      0.00000
     82       5.1837      0.00000
     83       5.2899      0.00000
     84       5.4812      0.00000
     85       5.7397      0.00000
     86       5.8358      0.00000
     87       6.0199      0.00000
     88       6.1224      0.00000
     89       6.2378      0.00000
     90       6.5128      0.00000
     91       6.5541      0.00000
     92       6.5869      0.00000
     93       6.7479      0.00000
     94       7.0845      0.00000
     95       7.1393      0.00000
     96       7.1866      0.00000
     97       7.3984      0.00000

 k-point     3 :       0.0000    0.5000    0.0000
  band No.  band energies     occupation 
      1     -39.2837      1.00000
      2     -38.9005      1.00000
      3     -38.8772      1.00000
      4     -38.8411      1.00000
      5     -38.8163      1.00000
      6     -38.7882      1.00000
      7     -38.7643      1.00000
      8     -38.5356      1.00000
      9     -19.4091      1.00000
     10     -19.3254      1.00000
     11     -19.2763      1.00000
     12     -19.1400      1.00000
     13     -19.1141      1.00000
     14     -19.0567      1.00000
     15     -19.0537      1.00000
     16     -18.9578      1.00000
     17     -18.9318      1.00000
     18     -18.9065      1.00000
     19     -18.8583      1.00000
     20     -18.8469      1.00000
     21     -18.8356      1.00000
     22     -18.8161      1.00000
     23     -18.7958      1.00000
     24     -18.7832      1.00000
     25     -18.7552      1.00000
     26     -18.7313      1.00000
     27     -18.7296      1.00000
     28     -18.7119      1.00000
     29     -18.6984      1.00000
     30     -18.5795      1.00000
     31     -18.5188      1.00000
     32     -18.5102      1.00000
     33      -9.8647      1.00000
     34      -9.6600      1.00000
     35      -9.5996      1.00000
     36      -9.4395      1.00000
     37      -9.3101      1.00000
     38      -9.2505      1.00000
     39      -9.1535      1.00000
     40      -5.2008      1.00000
     41      -5.1378      1.00000
     42      -4.9342      1.00000
     43      -4.8264      1.00000
     44      -1.3238      1.00000
     45      -1.2822      1.00000
     46      -0.9776      1.00000
     47      -0.6155      1.00000
     48      -0.4210      1.00000
     49      -0.3129      1.00000
     50      -0.2447      1.00000
     51      -0.0747      1.00000
     52       0.0442      1.00000
     53       0.1087      1.00000
     54       0.1304      1.00000
     55       0.1934      1.00000
     56       0.2354      1.00000
     57       0.5445      1.00000
     58       0.6390      1.00000
     59       1.1093      1.00000
     60       1.1906      1.00000
     61       1.2071      1.00000
     62       1.2812      1.00000
     63       1.3455      1.00000
     64       1.4737      1.00000
     65       1.5057      1.00000
     66       1.5527      1.00000
     67       1.6244      1.00000
     68       1.8206      1.00000
     69       1.9822      1.00000
     70       2.0308      1.00000
     71       2.2237      1.00000
     72       2.3791      1.00000
     73       2.4146      1.00000
     74       2.4745      1.00000
     75       2.5005      1.00000
     76       2.5717      1.00000
     77       3.4584      0.73592
     78       3.5000      0.63180
     79       4.0099      0.00054
     80       4.2493      0.00000
     81       4.9412      0.00000
     82       5.4267      0.00000
     83       5.7667      0.00000
     84       5.9198      0.00000
     85       6.0524      0.00000
     86       6.0751      0.00000
     87       6.3878      0.00000
     88       6.5768      0.00000
     89       6.7350      0.00000
     90       6.7993      0.00000
     91       6.9211      0.00000
     92       7.0389      0.00000
     93       7.0728      0.00000
     94       7.1262      0.00000
     95       7.2115      0.00000
     96       7.2877      0.00000
     97       7.3531      0.00000

 k-point     4 :       0.5000    0.5000    0.0000
  band No.  band energies     occupation 
      1     -39.2837      1.00000
      2     -38.8983      1.00000
      3     -38.8794      1.00000
      4     -38.8416      1.00000
      5     -38.8158      1.00000
      6     -38.7873      1.00000
      7     -38.7653      1.00000
      8     -38.5355      1.00000
      9     -19.4085      1.00000
     10     -19.3138      1.00000
     11     -19.2693      1.00000
     12     -19.1290      1.00000
     13     -19.0916      1.00000
     14     -19.0409      1.00000
     15     -18.9921      1.00000
     16     -18.9784      1.00000
     17     -18.9673      1.00000
     18     -18.9150      1.00000
     19     -18.8990      1.00000
     20     -18.8650      1.00000
     21     -18.8315      1.00000
     22     -18.8061      1.00000
     23     -18.7976      1.00000
     24     -18.7758      1.00000
     25     -18.7600      1.00000
     26     -18.7407      1.00000
     27     -18.7336      1.00000
     28     -18.7173      1.00000
     29     -18.7102      1.00000
     30     -18.5768      1.00000
     31     -18.5261      1.00000
     32     -18.5042      1.00000
     33      -9.7983      1.00000
     34      -9.5180      1.00000
     35      -9.5041      1.00000
     36      -9.4709      1.00000
     37      -9.4327      1.00000
     38      -9.4238      1.00000
     39      -9.1684      1.00000
     40      -5.1182      1.00000
     41      -5.0844      1.00000
     42      -5.0077      1.00000
     43      -4.8806      1.00000
     44      -0.5372      1.00000
     45      -0.4862      1.00000
     46      -0.4780      1.00000
     47      -0.4548      1.00000
     48      -0.4276      1.00000
     49      -0.3484      1.00000
     50      -0.3425      1.00000
     51      -0.2548      1.00000
     52      -0.1071      1.00000
     53      -0.0966      1.00000
     54      -0.0090      1.00000
     55       0.0588      1.00000
     56       0.1137      1.00000
     57       0.2809      1.00000
     58       0.4859      1.00000
     59       0.7986      1.00000
     60       1.0687      1.00000
     61       1.0822      1.00000
     62       1.1252      1.00000
     63       1.1430      1.00000
     64       1.1899      1.00000
     65       1.3979      1.00000
     66       1.5266      1.00000
     67       1.6924      1.00000
     68       1.7636      1.00000
     69       1.9580      1.00000
     70       2.0302      1.00000
     71       2.0915      1.00000
     72       2.2127      1.00000
     73       2.2190      1.00000
     74       2.2994      1.00000
     75       2.3489      1.00000
     76       2.4651      1.00000
     77       4.0437      0.00023
     78       4.0917      0.00006
     79       4.1705      0.00001
     80       4.2641      0.00000
     81       4.9104      0.00000
     82       5.0807      0.00000
     83       5.3829      0.00000
     84       5.5075      0.00000
     85       5.6247      0.00000
     86       5.9756      0.00000
     87       6.2443      0.00000
     88       6.4427      0.00000
     89       6.5515      0.00000
     90       6.7336      0.00000
     91       6.9158      0.00000
     92       6.9366      0.00000
     93       7.0105      0.00000
     94       7.1043      0.00000
     95       7.1443      0.00000
     96       7.2804      0.00000
     97       7.3561      0.00000

 k-point     5 :       0.0000    0.0000    0.5000
  band No.  band energies     occupation 
[...]
  0.000  -0.002  -0.001  -0.013   0.272  -0.000   0.011  -0.270  -0.045   0.000   0.005   0.010   0.000   0.024  -0.000  -0.003
 -0.000  -0.000  -0.112   0.002   0.007   0.114  -0.001  -0.006  -0.005   0.035   0.003   0.003  -0.027   0.002  -0.021  -0.001
 -0.004   0.028  -0.001   0.183  -0.002   0.001  -0.182   0.003   0.007   0.004  -0.037  -0.003   0.001  -0.004  -0.002   0.019
  0.001  -0.002   0.008  -0.005  -0.114  -0.007   0.003   0.117  -0.027   0.004   0.001   0.030  -0.003   0.014  -0.002  -0.000
 -0.000  -0.002   0.259  -0.005  -0.007  -0.259   0.005   0.006   0.001   0.008  -0.001  -0.002  -0.051  -0.000  -0.005   0.001
  0.000  -0.001   0.016  -0.003  -0.001  -0.014   0.003   0.000  -0.001   0.004   0.000  -0.002  -0.001   0.000  -0.002  -0.000
 total augmentation occupancy for first ion, spin component:           2
  0.000  -0.000  -0.000   0.000   0.000   0.000  -0.000  -0.000  -0.000   0.000  -0.000   0.000  -0.000   0.000  -0.000   0.000
 -0.000  -0.000  -0.000   0.000   0.000   0.000  -0.000  -0.000  -0.000   0.000  -0.000   0.000  -0.000   0.000  -0.000   0.000
 -0.000  -0.000  -0.000  -0.000   0.000   0.000   0.000  -0.000   0.000   0.000  -0.000   0.000   0.000   0.000  -0.000  -0.000
  0.000   0.000  -0.000   0.000   0.000   0.000  -0.000  -0.000   0.000   0.000  -0.000   0.000  -0.000  -0.000  -0.000   0.000
  0.000   0.000   0.000   0.000  -0.000  -0.000  -0.000   0.000  -0.000  -0.000  -0.000   0.000   0.000   0.000   0.000   0.000
  0.000   0.000   0.000   0.000  -0.000  -0.000  -0.000   0.000  -0.000  -0.000   0.000  -0.000  -0.000  -0.000   0.000   0.000
 -0.000  -0.000   0.000  -0.000  -0.000  -0.000   0.000   0.000  -0.000  -0.000   0.000   0.000   0.000   0.000   0.000  -0.000
 -0.000  -0.000  -0.000  -0.000   0.000   0.000   0.000  -0.000   0.000   0.000   0.000  -0.000  -0.000  -0.000  -0.000  -0.000
 -0.000  -0.000   0.000   0.000  -0.000  -0.000  -0.000   0.000  -0.000   0.000   0.000  -0.000  -0.000   0.000  -0.000  -0.000
  0.000   0.000   0.000   0.000  -0.000  -0.000  -0.000   0.000   0.000  -0.000   0.000  -0.000  -0.000  -0.000   0.000  -0.000
 -0.000  -0.000  -0.000  -0.000  -0.000   0.000   0.000   0.000   0.000   0.000   0.000  -0.000   0.000  -0.000  -0.000  -0.000
  0.000   0.000   0.000   0.000   0.000  -0.000   0.000  -0.000  -0.000  -0.000  -0.000   0.000   0.000   0.000   0.000   0.000
 -0.000  -0.000   0.000  -0.000   0.000  -0.000   0.000  -0.000  -0.000  -0.000   0.000   0.000   0.000   0.000   0.000  -0.000
  0.000   0.000   0.000  -0.000   0.000  -0.000   0.000  -0.000   0.000  -0.000  -0.000   0.000   0.000  -0.000   0.000   0.000
 -0.000  -0.000  -0.000  -0.000   0.000   0.000   0.000  -0.000  -0.000   0.000  -0.000   0.000   0.000   0.000  -0.000   0.000
  0.000   0.000  -0.000   0.000   0.000   0.000  -0.000  -0.000  -0.000  -0.000  -0.000   0.000  -0.000   0.000   0.000   0.000
 -0.000  -0.000  -0.000  -0.000  -0.000   0.000   0.000   0.000   0.000   0.000   0.000  -0.000  -0.000  -0.000  -0.000  -0.000
  0.000  -0.000  -0.000   0.000  -0.000   0.000  -0.000   0.000   0.000   0.000  -0.000  -0.000  -0.000  -0.000  -0.000   0.000
  0.000   0.000  -0.000   0.000   0.000   0.000  -0.000  -0.000   0.000   0.000  -0.000   0.000  -0.000  -0.000  -0.000  -0.000
  0.000   0.000  -0.000   0.000  -0.000   0.000  -0.000   0.000  -0.000   0.000  -0.000  -0.000  -0.000  -0.000  -0.000   0.000
  0.000  -0.000  -0.000   0.000   0.000   0.000  -0.000  -0.000   0.000   0.000  -0.000  -0.000  -0.000  -0.000   0.000   0.000
 -0.000   0.000  -0.000   0.000  -0.000   0.000  -0.000   0.000   0.000   0.000  -0.000  -0.000  -0.000  -0.000  -0.000  -0.000
  0.000   0.000  -0.000   0.000  -0.000   0.000   0.000   0.000   0.000  -0.000  -0.000   0.000  -0.000  -0.000   0.000   0.000
 -0.000  -0.000  -0.000   0.000   0.000   0.000  -0.000  -0.000   0.000   0.000  -0.000   0.000   0.000  -0.000  -0.000   0.000
 -0.000  -0.000   0.000   0.000  -0.000  -0.000  -0.000   0.000  -0.000  -0.000   0.000  -0.000   0.000   0.000   0.000  -0.000


------------------------ aborting loop because EDIFF is reached ----------------------------------------





 total charge     

# of ion       s       p       d       f       tot
--------------------------------------------------
    1        2.183   6.370   0.943   0.043   9.538
    2        2.183   6.372   0.944   0.044   9.543
    3        2.184   6.372   0.939   0.043   9.538
    4        2.183   6.369   0.937   0.043   9.533
    5        2.202   6.395   1.002   0.046   9.644
    6        2.205   6.317   0.999   0.038   9.560
    7        2.182   6.334   0.927   0.039   9.481
    8        2.192   6.341   0.965   0.041   9.538
    9        0.864   1.380   0.000   0.000   2.244
   10        0.864   1.381   0.000   0.000   2.245
   11        0.865   1.378   0.000   0.000   2.243
   12        0.864   1.361   0.000   0.000   2.225
   13        1.508   2.833   0.019   0.000   4.360
   14        1.507   2.833   0.019   0.000   4.359
   15        1.508   2.832   0.019   0.000   4.359
   16        1.508   2.832   0.019   0.000   4.358
   17        1.511   2.805   0.015   0.000   4.332
   18        1.514   2.837   0.025   0.000   4.376
   19        1.504   2.822   0.014   0.000   4.340
--------------------------------------------------
tot         31.530  76.166   7.785   0.337 115.817




 magnetization (x)

# of ion       s       p       d       f       tot
--------------------------------------------------
    1       -0.000  -0.000   0.000   0.000   0.000
    2       -0.000   0.000   0.000   0.000   0.000
    3        0.000   0.000   0.000   0.000   0.000
    4        0.000   0.000   0.000   0.000   0.000
    5       -0.000   0.000   0.000  -0.000   0.000
    6       -0.000   0.000   0.000   0.000  -0.000
    7       -0.000   0.000   0.000   0.000   0.000
    8        0.000  -0.000   0.000   0.000   0.000
    9        0.000   0.000   0.000   0.000   0.000
   10       -0.000   0.000   0.000   0.000   0.000
   11        0.000   0.000   0.000   0.000   0.000
   12       -0.000   0.000   0.000   0.000  -0.000
   13        0.000   0.000  -0.000   0.000   0.000
   14        0.000   0.000   0.000   0.000   0.000
   15        0.000  -0.000  -0.000   0.000  -0.000
   16        0.000   0.000  -0.000   0.000   0.000
   17        0.000   0.000  -0.000   0.000   0.000
   18       -0.000  -0.000   0.000   0.000  -0.000
   19        0.000   0.000  -0.000   0.000   0.000
--------------------------------------------------
tot          0.000   0.000   0.000   0.000   0.000


    CHARGE:  cpu time    2.8497: real time    2.8662
    FORLOC:  cpu time    0.1313: real time    0.1319
    FORNL :  cpu time   18.5636: real time   18.6692
    STRESS:  cpu time   50.0711: real time   50.3338
    FORCOR:  cpu time    1.5398: real time    1.5484
    FORHAR:  cpu time    0.2773: real time    0.2787
    MIXING:  cpu time    0.0259: real time    0.0260
    OFIELD:  cpu time    0.0000: real time    0.0000

  FORCE on cell =-STRESS in cart. coord.  units (eV):
  Direction    XX          YY          ZZ          XY          YZ          ZX
  --------------------------------------------------------------------------------------
  Alpha Z   490.14769   490.14769   490.14769
  Ewald     498.86986   580.79877 -6619.08778    36.78261    -0.82500   -15.45256
  Hartree  3918.27148  3954.85820 -2694.56249    17.78925     3.16091    -6.39996
  E(xc)    -597.63100  -597.41018  -598.01988     0.08098    -0.00989    -0.02033
  Local   -6555.09488 -6673.08417  7195.92621   -55.31008    -3.07848    22.67869
  n-local   535.91195   538.02108   540.87891     0.32742     0.38816     0.14978
  augment  -143.43573  -143.66159  -142.47069     0.06917    -0.10821     0.10163
  Kinetic  1846.65145  1847.54002  1827.86956     0.51024     0.49938    -2.86760
  Fock        0.00000     0.00000     0.00000     0.00000     0.00000     0.00000
  -------------------------------------------------------------------------------------
  Total      -6.30918    -2.79017     0.68153     0.24959     0.02687    -1.81034
  in kB     -17.41536    -7.70175     1.88123     0.68895     0.07418    -4.99713
  external pressure =       -7.75 kB  Pullay stress =        0.00 kB


 VOLUME and BASIS-vectors are now :
 -----------------------------------------------------------------------------
  energy-cutoff  :      520.00
  volume of cell :      580.43
      direct lattice vectors                 reciprocal lattice vectors
     7.770644000  0.000004000  0.000000000     0.128689463 -0.000000038  0.000000012
     0.000002000  6.729576000  0.000000000    -0.000000076  0.148597772  0.000000013
    -0.000001000 -0.000001000 11.099577000     0.000000000  0.000000000  0.090093523

  length of vectors
     7.770644000  6.729576000 11.099577000     0.128689463  0.148597772  0.090093523


 FORCES acting on ions
    electron-ion (+dipol)            ewald-force                    non-local-force                 convergence-correction
 -----------------------------------------------------------------------------------------------
   0.911E+01 0.491E+00 -.344E+03   -.905E+01 -.417E+00 0.339E+03   -.800E-01 -.818E-01 0.442E+01   -.206E-03 0.898E-04 -.200E-03
   -.872E+01 -.129E+01 -.353E+03   0.873E+01 0.142E+01 0.348E+03   -.318E-01 -.129E+00 0.446E+01   0.255E-04 0.251E-04 -.494E-04
   0.553E+00 -.968E+01 -.366E+03   -.577E+00 0.878E+01 0.362E+03   0.744E-02 0.896E+00 0.418E+01   0.620E-04 0.761E-03 0.330E-03
   0.106E+01 0.101E+02 -.356E+03   -.983E+00 -.949E+01 0.351E+03   -.104E+00 -.582E+00 0.455E+01   0.205E-04 0.873E-03 0.903E-04
   0.242E+02 -.289E+02 0.417E+03   -.236E+02 0.285E+02 -.413E+03   -.661E+00 0.410E+00 -.426E+01   0.214E-03 0.867E-03 -.142E-02
   -.191E+02 -.632E+02 0.513E+03   0.187E+02 0.617E+02 -.504E+03   0.307E+00 0.151E+01 -.896E+01   -.187E-03 0.847E-03 -.473E-03
   -.375E+02 0.312E+02 0.451E+03   0.372E+02 -.310E+02 -.445E+03   0.267E+00 -.299E+00 -.593E+01   -.379E-04 0.306E-03 0.370E-03
   0.333E+02 0.616E+02 0.464E+03   -.331E+02 -.599E+02 -.457E+03   -.262E+00 -.168E+01 -.660E+01   -.258E-03 0.365E-03 -.324E-03
   -.307E+01 -.843E+01 0.185E+02   0.297E+01 0.842E+01 -.188E+02   0.657E-01 0.152E-02 0.233E+00   -.383E-04 0.616E-04 -.782E-04
   0.962E+00 0.311E+01 0.167E+02   -.857E+00 -.305E+01 -.169E+02   -.143E+00 -.425E-01 0.224E+00   0.411E-04 0.126E-03 -.480E-04
   0.382E+01 0.777E+01 0.167E+02   -.378E+01 -.763E+01 -.168E+02   -.731E-01 -.148E+00 0.347E-01   0.490E-04 -.231E-04 -.250E-03
   -.319E+01 0.941E+00 0.449E+02   0.317E+01 -.988E+00 -.449E+02   -.239E-01 0.500E-01 -.242E-01   -.884E-05 0.143E-03 -.106E-03
   0.401E+01 -.427E+00 -.377E+03   -.399E+01 0.453E+00 0.379E+03   -.310E-01 -.258E-01 -.244E+01   0.339E-04 -.280E-04 0.327E-03
   -.340E+01 -.348E+01 -.389E+03   0.341E+01 0.346E+01 0.391E+03   -.178E-01 0.224E-01 -.236E+01   -.479E-04 -.836E-04 0.322E-03
   -.670E+01 0.101E+01 -.377E+03   0.672E+01 -.102E+01 0.380E+03   -.338E-01 0.102E-01 -.242E+01   -.762E-04 0.239E-04 0.299E-03
   0.673E+01 0.344E+01 -.382E+03   -.673E+01 -.344E+01 0.384E+03   -.123E-01 0.151E-02 -.239E+01   0.554E-04 0.224E-04 0.270E-03
   -.568E+01 0.412E+01 0.304E+03   0.564E+01 -.410E+01 -.306E+03   0.791E+00 -.980E-03 0.236E+01   -.538E-04 -.728E-03 -.554E-03
   0.121E+02 -.808E+01 0.364E+03   -.123E+02 0.830E+01 -.366E+03   0.555E-03 -.209E+00 0.214E+01   0.132E-03 -.306E-03 -.116E-03
   -.829E+01 0.563E-01 0.345E+03   0.837E+01 -.373E-01 -.347E+03   -.160E+00 -.598E-02 0.248E+01   0.794E-04 -.387E-04 -.102E-03
 -----------------------------------------------------------------------------------------------
   0.196E+00 0.311E+00 0.103E+02   0.888E-14 0.493E-13 0.227E-12   -.195E+00 -.305E+00 -.103E+02   -.200E-03 0.330E-02 -.172E-02


 POSITION                                       TOTAL-FORCE (eV/Angst)
 -----------------------------------------------------------------------------------
      7.72991      2.23283      1.31572        -0.018416     -0.008366     -0.011353
      3.87604      2.23781      1.32595        -0.021070     -0.000093      0.001439
      1.92095      5.54964      1.35614        -0.015950     -0.006148     -0.002250
      5.79776      5.56758      1.32101        -0.027090      0.000081     -0.003556
      1.93823      1.09105      9.92373         0.008700     -0.022186     -0.001567
      5.77410      1.01512      9.87564        -0.058992      0.004920     -0.011203
      3.79730      4.45034      9.78111        -0.044906     -0.044083     -0.048258
      7.76189      4.51300      9.83797        -0.058784      0.040947      0.031304
      7.69659     -0.03057     11.07936        -0.033321     -0.011170      0.012004
      3.88616     -0.01405     -0.03032        -0.038509      0.010838     -0.004678
      1.90792      3.37970     11.12991        -0.033147     -0.006629     -0.006096
      5.79079      3.30106     11.01182        -0.036448      0.003024     -0.004483
      1.92065      1.09763      3.44652        -0.015965     -0.000276      0.005769
      5.80780      1.08998      3.47092        -0.013906     -0.000124     -0.003040
      3.87476      4.45937      3.49267        -0.012486      0.000550     -0.002263
      7.74190      4.45805      3.49039        -0.015211     -0.003001     -0.004459
      2.47340      2.52135      7.34379         0.747083      0.016777      0.122491
      1.76394      5.83439      7.71114        -0.235990      0.012560     -0.072613
      5.76233      5.56879      7.58419        -0.075593      0.012379      0.002813
 -----------------------------------------------------------------------------------
    total drift:                                0.000296      0.009636      0.001055


--------------------------------------------------------------------------------------------------------



  FREE ENERGIE OF THE ION-ELECTRON SYSTEM (eV)
  ---------------------------------------------------
  free  energy   TOTEN  =      -116.18711105 eV

  energy  without entropy=     -116.11090534  energy(sigma->0) =     -116.14900819

 d Force = 0.6170343E-03[ 0.612E-03, 0.622E-03]  d Energy = 0.6178357E-03-0.801E-06
 d Force =-0.4574269E-01[-0.460E-01,-0.455E-01]  d Ewald  =-0.4574266E-01-0.311E-07


--------------------------------------------------------------------------------------------------------


    POTLOK:  cpu time    1.6177: real time    1.6271


--------------------------------------------------------------------------------------------------------


 NEB: the previous image is higher in energy: T
 NEB: the next image is higher in energy    : F
 NEB: only prev energy greater

 NEB: Tangent
 ----------------------------------------------
     -0.02275     -0.00893     -0.01439
     -0.02630      0.00017      0.00251
     -0.01964     -0.00626     -0.00241
     -0.03363      0.00206     -0.00379
      0.01069     -0.02587     -0.00337
     -0.07324      0.00797     -0.01412
     -0.05477     -0.05353     -0.05743
     -0.07354      0.05246      0.03970
     -0.04104     -0.01237      0.01391
     -0.04712      0.01560     -0.00553
     -0.04068     -0.00712     -0.00810
     -0.04525      0.00405     -0.00432
     -0.02034      0.00062      0.00697
     -0.01666      0.00087     -0.00322
     -0.01539      0.00081     -0.00259
     -0.01864     -0.00278     -0.00542
      0.91808      0.00985      0.14396
     -0.28591      0.00676     -0.08615
     -0.09309      0.01565      0.00378

 NEB: forces: par spring, perp REAL, dneb     0.001063    0.014076    0.000000
 NEB: distance to prev, next image, angle between     0.589915    0.589703  162.554250
 NEB: projections on to tangent (spring, REAL)    -0.001063    0.815658

 stress matrix after NEB project (eV)
     -6.30918      0.24959     -1.81034
      0.24959     -2.79017      0.02687
     -1.81034      0.02687      0.68153
  FORCES: max atom, RMS     0.010385    0.003239
  FORCE total and by dimension    0.014116    0.008731
  Stress total and by dimension    7.398379    6.309181
 Quasi-Newton relaxation of ions (Broydens 2nd method)
  g(Force)  = 0.129E-03   g(Stress)= 0.000E+00

 retain information from N=  2 steps
 eigenvalues of (default step * inverse Hessian matrix)
  average eigenvalue of G=   7.2069
 eigenvalue spectrum of G is  7.2069  7.2069


--------------------------------------------------------------------------------------------------------


  
 reached required accuracy - stopping structural energy minimisation
     LOOP+:  cpu time  697.8006: real time  700.4943
    4ORBIT:  cpu time    0.0000: real time    0.0000



 total charge     

# of ion       s       p       d       f       tot
--------------------------------------------------
    1        2.183   6.370   0.943   0.043   9.538
    2        2.183   6.372   0.944   0.044   9.543
    3        2.184   6.372   0.939   0.043   9.538
    4        2.183   6.369   0.937   0.043   9.533
    5        2.202   6.395   1.002   0.046   9.644
    6        2.205   6.317   0.999   0.038   9.560
    7        2.182   6.334   0.927   0.039   9.481
    8        2.192   6.341   0.965   0.041   9.538
    9        0.864   1.380   0.000   0.000   2.244
   10        0.864   1.381   0.000   0.000   2.245
   11        0.865   1.378   0.000   0.000   2.243
   12        0.864   1.361   0.000   0.000   2.225
   13        1.508   2.833   0.019   0.000   4.360
   14        1.507   2.833   0.019   0.000   4.359
   15        1.508   2.832   0.019   0.000   4.359
   16        1.508   2.832   0.019   0.000   4.358
   17        1.511   2.805   0.015   0.000   4.332
   18        1.514   2.837   0.025   0.000   4.376
   19        1.504   2.822   0.014   0.000   4.340
--------------------------------------------------
tot         31.530  76.166   7.785   0.337 115.817




 magnetization (x)

# of ion       s       p       d       f       tot
--------------------------------------------------
    1       -0.000  -0.000   0.000   0.000   0.000
    2       -0.000   0.000   0.000   0.000   0.000
    3        0.000   0.000   0.000   0.000   0.000
    4        0.000   0.000   0.000   0.000   0.000
    5       -0.000   0.000   0.000  -0.000   0.000
    6       -0.000   0.000   0.000   0.000  -0.000
    7       -0.000   0.000   0.000   0.000   0.000
    8        0.000  -0.000   0.000   0.000   0.000
    9        0.000   0.000   0.000   0.000   0.000
   10       -0.000   0.000   0.000   0.000   0.000
   11        0.000   0.000   0.000   0.000   0.000
   12       -0.000   0.000   0.000   0.000  -0.000
   13        0.000   0.000  -0.000   0.000   0.000
   14        0.000   0.000   0.000   0.000   0.000
   15        0.000  -0.000  -0.000   0.000  -0.000
   16        0.000   0.000  -0.000   0.000   0.000
   17        0.000   0.000  -0.000   0.000   0.000
   18       -0.000  -0.000   0.000   0.000  -0.000
   19        0.000   0.000  -0.000   0.000   0.000
--------------------------------------------------
tot          0.000   0.000   0.000   0.000   0.000



 total amount of memory used by VASP MPI-rank0   265331. kBytes
=======================================================================

   base      :      30000. kBytes
   nonlr-proj:       9752. kBytes
   fftplans  :      25286. kBytes
   grid      :      66476. kBytes
   one-center:        420. kBytes
   wavefun   :     133397. kBytes

  
  
 General timing and accounting informations for this job:
 ========================================================
  
                  Total CPU time used (sec):    25490.471
                            User time (sec):    25025.565
                          System time (sec):      464.905
                         Elapsed time (sec):    25596.542
  
                   Maximum memory used (kb):      478288.
                   Average memory used (kb):           0.
  
                          Minor page faults:       791324
                          Major page faults:            0
                 Voluntary context switches:         6517
