 vasp.5.4.4.18Apr17-6-g9f103f2a35 (build Feb  5 2022 00:56:52) complex           
 executed on             LinuxGNU date 2022.02.08  03:19:48
 running on   21 total cores
 each image running on    3 cores
 distrk:  each k-point on    3 cores,    1 groups
 distr:  one band on NCORES_PER_BAND=   3 cores,    1 groups


--------------------------------------------------------------------------------------------------------


 INCAR:
 POTCAR:    PAW_PBE Y_sv 25May2007                
 POTCAR:    PAW_PBE C 08Apr2002                   
 POTCAR:    PAW_PBE I 08Apr2002                   
 POTCAR:    PAW_PBE Y_sv 25May2007                
   VRHFIN =Y: 4s4p5s4d                                                          
   LEXCH  = PE                                                                  
   EATOM  =  1046.9140 eV,   76.9460 Ry                                         
                                                                                
   TITEL  = PAW_PBE Y_sv 25May2007                                              
   LULTRA =        F    use ultrasoft PP ?                                      
   IUNSCR =        1    unscreen: 0-lin 1-nonlin 2-no                           
   RPACOR =    2.200    partial core radius                                     
   POMASS =   88.906; ZVAL   =   11.000    mass and valenz                      
   RCORE  =    2.800    outmost cutoff radius                                   
   RWIGS  =    3.430; RWIGS  =    1.815    wigner-seitz radius (au A)           
   ENMAX  =  202.626; ENMIN  =  151.970 eV                                      
   RCLOC  =    2.212    cutoff for local pot                                    
   LCOR   =        T    correct aug charges                                     
   LPAW   =        T    paw PP                                                  
   EAUG   =  470.889                                                            
   DEXC   =    0.000                                                            
   RMAX   =    2.863    core radius for proj-oper                               
   RAUG   =    1.300    factor for augmentation sphere                          
   RDEP   =    2.926    radius for radial grids                                 
   RDEPT  =    2.280    core radius for aug-charge                              
                                                                                
   Atomic configuration                                                         
   11 entries                                                                   
     n  l   j            E        occ.                                          
     1  0  0.50    -16863.0720   2.0000                                         
     2  0  0.50     -2309.2881   2.0000                                         
     2  1  1.50     -2055.5536   6.0000                                         
     3  0  0.50      -367.1837   2.0000                                         
     3  1  1.50      -284.8912   6.0000                                         
     3  2  2.50      -149.4324  10.0000                                         
     4  0  0.50       -46.3345   2.0000                                         
     5  0  0.50        -3.6387   1.0000                                         
     4  1  1.50       -26.3769   6.0000                                         
     4  2  2.50        -1.6291   2.0000                                         
     4  3  2.50        -1.3606   0.0000                                         
   Description                                                                  
     l       E           TYP  RCUT    TYP  RCUT                                 
     0    -46.3344714     23  2.600                                             
     0     -3.6387002     23  2.700                                             
     1    -26.3769044     23  2.600                                             
     1    -27.7374870     23  2.600                                             
     2     -1.6291019     23  2.600                                             
     2      0.1354037     23  2.600                                             
     3     -1.3605826     23  2.800                                             
  local pseudopotential read in
  partial core-charges read in
  partial kinetic energy density read in
  atomic valenz-charges read in
  non local Contribution for L=           0  read in
    real space projection operators read in
  non local Contribution for L=           0  read in
    real space projection operators read in
  non local Contribution for L=           1  read in
    real space projection operators read in
  non local Contribution for L=           1  read in
    real space projection operators read in
  non local Contribution for L=           2  read in
    real space projection operators read in
  non local Contribution for L=           2  read in
    real space projection operators read in
  non local Contribution for L=           3  read in
    real space projection operators read in
    PAW grid and wavefunctions read in

   number of l-projection  operators is LMAX  =           7
   number of lm-projection operators is LMMAX =          25

 POTCAR:    PAW_PBE C 08Apr2002                   
   VRHFIN =C: s2p2                                                              
   LEXCH  = PE                                                                  
   EATOM  =   147.1560 eV,   10.8157 Ry                                         
                                                                                
   TITEL  = PAW_PBE C 08Apr2002                                                 
   LULTRA =        F    use ultrasoft PP ?                                      
   IUNSCR =        1    unscreen: 0-lin 1-nonlin 2-no                           
   RPACOR =    1.200    partial core radius                                     
   POMASS =   12.011; ZVAL   =    4.000    mass and valenz                      
   RCORE  =    1.500    outmost cutoff radius                                   
   RWIGS  =    1.630; RWIGS  =    0.863    wigner-seitz radius (au A)           
   ENMAX  =  400.000; ENMIN  =  300.000 eV                                      
   ICORE  =        2    local potential                                         
   LCOR   =        T    correct aug charges                                     
   LPAW   =        T    paw PP                                                  
   EAUG   =  644.873                                                            
   DEXC   =    0.000                                                            
   RMAX   =    1.529    core radius for proj-oper                               
   RAUG   =    1.300    factor for augmentation sphere                          
   RDEP   =    1.501    radius for radial grids                                 
   RDEPT  =    1.300    core radius for aug-charge                              
                                                                                
   Atomic configuration                                                         
    4 entries                                                                   
     n  l   j            E        occ.                                          
     1  0  0.50      -273.3789   2.0000                                         
     2  0  0.50       -13.7508   2.0000                                         
     2  1  0.50        -5.2854   2.0000                                         
     3  2  1.50        -5.4423   0.0000                                         
   Description                                                                  
     l       E           TYP  RCUT    TYP  RCUT                                 
     0    -13.7508458     23  1.200                                             
     0     -8.2022199     23  1.200                                             
     1     -5.2854383     23  1.500                                             
     1     34.0145650     23  1.500                                             
     2     -5.4423304      7  1.500                                             
  local pseudopotential read in
  partial core-charges read in
  partial kinetic energy density read in
  atomic valenz-charges read in
  non local Contribution for L=           0  read in
    real space projection operators read in
  non local Contribution for L=           0  read in
    real space projection operators read in
  non local Contribution for L=           1  read in
    real space projection operators read in
  non local Contribution for L=           1  read in
    real space projection operators read in
    PAW grid and wavefunctions read in

   number of l-projection  operators is LMAX  =           4
   number of lm-projection operators is LMMAX =           8

 POTCAR:    PAW_PBE I 08Apr2002                   
   VRHFIN =I : s2p5                                                             
   LEXCH  = PE                                                                  
   EATOM  =   315.8678 eV,   23.2156 Ry                                         
                                                                                
   TITEL  = PAW_PBE I 08Apr2002                                                 
   LULTRA =        F    use ultrasoft PP ?                                      
   IUNSCR =        1    unscreen: 0-lin 1-nonlin 2-no                           
   RPACOR =    2.200    partial core radius                                     
   POMASS =  126.904; ZVAL   =    7.000    mass and valenz                      
   RCORE  =    2.300    outmost cutoff radius                                   
   RWIGS  =    2.810; RWIGS  =    1.487    wigner-seitz radius (au A)           
   ENMAX  =  175.647; ENMIN  =  131.735 eV                                      
   ICORE  =        3    local potential                                         
   LCOR   =        T    correct aug charges                                     
   LPAW   =        T    paw PP                                                  
   EAUG   =  370.139                                                            
   DEXC   =    0.000                                                            
   RMAX   =    2.359    core radius for proj-oper                               
   RAUG   =    1.300    factor for augmentation sphere                          
   RDEP   =    2.392    radius for radial grids                                 
   RDEPT  =    2.170    core radius for aug-charge                              
                                                                                
   Atomic configuration                                                         
   13 entries                                                                   
     n  l   j            E        occ.                                          
     1  0  0.50    -32976.3739   2.0000                                         
     2  0  0.50     -5094.5933   2.0000                                         
     2  1  1.50     -4572.0131   6.0000                                         
     3  0  0.50     -1028.2813   2.0000                                         
     3  1  1.50      -859.0250   6.0000                                         
     3  2  2.50      -605.7620  10.0000                                         
     4  0  0.50      -180.5540   2.0000                                         
     4  1  1.50      -127.5306   6.0000                                         
     4  2  2.50       -50.2720  10.0000                                         
     5  0  0.50       -17.4058   2.0000                                         
     5  1  0.50        -7.0851   5.0000                                         
     5  2  1.50        -7.0750   0.0000                                         
     4  3  2.50        -7.0750   0.0000                                         
   Description                                                                  
     l       E           TYP  RCUT    TYP  RCUT                                 
     0    -17.4058016     23  2.300                                             
     0    -18.7663842     23  2.300                                             
     1     -7.0850686     23  2.300                                             
     1     -4.2150896     23  2.300                                             
     2     -7.0750295     23  2.300                                             
     3     -1.3605826     23  2.300                                             
  local pseudopotential read in
  partial core-charges read in
  partial kinetic energy density read in
  atomic valenz-charges read in
  non local Contribution for L=           0  read in
    real space projection operators read in
  non local Contribution for L=           0  read in
    real space projection operators read in
  non local Contribution for L=           1  read in
    real space projection operators read in
  non local Contribution for L=           1  read in
    real space projection operators read in
  non local Contribution for L=           2  read in
    real space projection operators read in
    PAW grid and wavefunctions read in

   number of l-projection  operators is LMAX  =           5
   number of lm-projection operators is LMMAX =          13

 Optimization of the real space projectors (new method)

 maximal supplied QI-value         = 13.42
 optimisation between [QCUT,QGAM] = [ 11.67, 23.35] = [ 38.16,152.62] Ry 
 Optimized for a Real-space Cutoff    1.68 Angstroem

   l    n(q)    QCUT    max X(q) W(low)/X(q) W(high)/X(q)  e(spline) 
   0     12    11.673    14.902    0.22E-04    0.24E-05    0.52E-07
   0     12    11.673     9.294    0.34E-04    0.58E-05    0.89E-07
   1     11    11.673    69.520    0.10E-04    0.47E-04    0.49E-06
   1     11    11.673    72.085    0.10E-04    0.48E-04    0.50E-06
   2     11    11.673    62.934    0.94E-04    0.14E-04    0.82E-06
   2     11    11.673    49.749    0.91E-04    0.13E-04    0.79E-06
   3     10    11.673     8.311    0.92E-04    0.21E-04    0.59E-06
 Optimization of the real space projectors (new method)

 maximal supplied QI-value         = 25.13
 optimisation between [QCUT,QGAM] = [ 11.56, 23.12] = [ 37.43,149.72] Ry 
 Optimized for a Real-space Cutoff    1.04 Angstroem

   l    n(q)    QCUT    max X(q) W(low)/X(q) W(high)/X(q)  e(spline) 
   0      7    11.561   115.676    0.20E-03    0.60E-03    0.21E-06
   0      7    11.561    87.132    0.20E-03    0.59E-03    0.21E-06
   1      7    11.561     4.429    0.23E-03    0.35E-03    0.15E-06
   1      7    11.561     2.733    0.18E-03    0.25E-03    0.12E-06
 Optimization of the real space projectors (new method)

 maximal supplied QI-value         = 16.25
 optimisation between [QCUT,QGAM] = [ 11.54, 23.24] = [ 37.28,151.24] Ry 
 Optimized for a Real-space Cutoff    1.40 Angstroem

   l    n(q)    QCUT    max X(q) W(low)/X(q) W(high)/X(q)  e(spline) 
   0     10    11.539   194.483    0.48E-04    0.89E-04    0.13E-06
   0     10    11.539   190.334    0.47E-04    0.86E-04    0.12E-06
   1      9    11.539   116.687    0.15E-03    0.73E-04    0.13E-06
   1      9    11.539    88.696    0.15E-03    0.72E-04    0.13E-06
   2      9    11.539     4.877    0.99E-05    0.58E-04    0.56E-07
  PAW_PBE Y_sv 25May2007                :
 energy of atom  1       EATOM=-1046.9140
 kinetic energy error for atom=    0.0008 (will be added to EATOM!!)
  PAW_PBE C 08Apr2002                   :
 energy of atom  2       EATOM= -147.1560
 kinetic energy error for atom=    0.0071 (will be added to EATOM!!)
  PAW_PBE I 08Apr2002                   :
 energy of atom  3       EATOM= -315.8678
 kinetic energy error for atom=    0.0009 (will be added to EATOM!!)


 POSCAR: Y8 C4 I7                                
  positions in direct lattice
  No initial velocities read in
 exchange correlation table for  LEXCH =        8
   RHO(1)=    0.500       N(1)  =     2000
   RHO(2)=  100.500       N(2)  =     4000

 VTST: version 3.2, (02/03/18)

 CHAIN: initializing optimizer
 
 OPT: Using VASP QUASI-newton optimizer
 CHAIN: Read ICHAIN            0
 CHAIN: Running the NEB
 NEB:          SPRING     -5.000000
 NEB:          LCLIMB      T
 NEB:     LTANGENTOLD      F
 NEB:           LDNEB      F
 NEB:        LDNEBORG      F
 NEB:        LNEBCELL      F
 NEB:          EFIRST      0.000000
 NEB:           ELAST      0.000000

 POSCAR: Y8 C4 I7                                
  positions in direct lattice
  No initial velocities read in

 POSCAR: Y8 C4 I7                                
  positions in direct lattice
  No initial velocities read in



--------------------------------------------------------------------------------------------------------


 ion  position               nearest neighbor table
   1  0.999  0.334  0.120-  12 2.60   9 2.61  11 2.61  13 3.09  16 3.10  14 3.11   5 3.36   6 3.42
                             8 3.45   2 3.83   4 3.86   3 3.87   4 3.89   3 3.91   2 3.94
   2  0.506  0.337  0.117-  10 2.61  11 2.61  12 2.62  15 3.11  14 3.11  13 3.12   5 3.37   7 3.41
                             6 3.50   1 3.83   4 3.84   3 3.87   4 3.89   3 3.94   1 3.94
   3  0.251  0.831  0.121-  11 2.61   9 2.65  10 2.68  13 3.07  15 3.09  16 3.09   5 3.26   7 3.41
                             8 3.42   2 3.87   1 3.87   4 3.88   4 3.89   1 3.91   2 3.94
   4  0.751  0.832  0.120-  10 2.59   9 2.59  12 2.66  16 3.08  15 3.08  14 3.13   7 3.38   8 3.41
                             6 3.51   2 3.84   1 3.86   3 3.88   3 3.89   1 3.89   2 3.89
   5  0.250  0.151  0.900-   9 2.47  10 2.49  11 2.59  17 2.89   3 3.26  18 3.27   1 3.36   2 3.37
                             8 3.75   7 3.76   6 3.79   6 4.00   8 4.02   7 4.04
   6  0.764  0.169  0.879-   9 2.52  12 2.54  10 2.64  19 3.05   1 3.42   2 3.50   4 3.51   5 3.79
                             8 3.81   8 3.86   7 3.89   7 3.96   5 4.00
   7  0.504  0.675  0.889-  10 2.52  12 2.57  11 2.61  18 3.08  19 3.18   4 3.38   2 3.41   3 3.41
                             5 3.76   8 3.86   6 3.89   8 3.91   6 3.96   5 4.04
   8  0.001  0.674  0.886-  12 2.53   9 2.54  11 2.60  18 3.11  19 3.19   4 3.41   3 3.42   1 3.45
                            17 3.65   5 3.75   6 3.81   7 3.86   6 3.86   7 3.91   5 4.02
   9  0.997  0.001  1.000-   5 2.47   6 2.52   8 2.54   4 2.59   1 2.61   3 2.65
  10  0.508  0.003  0.999-   5 2.49   7 2.52   4 2.59   2 2.61   6 2.64   3 2.68
  11  0.251  0.499  1.000-   5 2.59   8 2.60   7 2.61   2 2.61   3 2.61   1 2.61
  12  0.757  0.498  0.993-   8 2.53   6 2.54   7 2.57   1 2.60   2 2.62   4 2.66
  13  0.252  0.165  0.309-   3 3.07   1 3.09   2 3.12
  14  0.751  0.169  0.315-   1 3.11   2 3.11   4 3.13
  15  0.503  0.668  0.312-   4 3.08   3 3.09   2 3.11
  16  0.999  0.668  0.312-   4 3.08   3 3.09   1 3.10
  17  0.190  0.331  0.668-   5 2.89  18 3.29  18 3.54   8 3.65
  18  0.257  0.813  0.688-   7 3.08   8 3.11   5 3.27  17 3.29  17 3.54
  19  0.750  0.849  0.685-   6 3.05   7 3.18   8 3.19


IMPORTANT INFORMATION: All symmetrisations will be switched off!
NOSYMM: (Re-)initialisation of all symmetry stuff for point group C_1.




Automatic generation of k-mesh.
 generate k-points for:    2    2    2
Space group operators:
 irot       det(A)        alpha          n_x          n_y          n_z        tau_x        tau_y        tau_z
    1     1.000000     0.000000     1.000000     0.000000     0.000000     0.000000     0.000000     0.000000
 
 Subroutine IBZKPT returns following result:
 ===========================================
 
 Found      8 irreducible k-points:
 
 Following reciprocal coordinates:
            Coordinates               Weight
  0.000000  0.000000  0.000000      1.000000
  0.500000  0.000000  0.000000      1.000000
  0.000000  0.500000  0.000000      1.000000
  0.500000  0.500000  0.000000      1.000000
  0.000000  0.000000  0.500000      1.000000
  0.500000  0.000000  0.500000      1.000000
  0.000000  0.500000  0.500000      1.000000
  0.500000  0.500000  0.500000      1.000000
 
 Following cartesian coordinates:
            Coordinates               Weight
  0.000000  0.000000  0.000000      1.000000
  0.064345 -0.000000  0.000000      1.000000
 -0.000000  0.074299  0.000000      1.000000
  0.064345  0.074299  0.000000      1.000000
  0.000000  0.000000  0.045047      1.000000
  0.064345 -0.000000  0.045047      1.000000
 -0.000000  0.074299  0.045047      1.000000
  0.064345  0.074299  0.045047      1.000000
 


--------------------------------------------------------------------------------------------------------




 Dimension of arrays:
   k-points           NKPTS =      8   k-points in BZ     NKDIM =      8   number of bands    NBANDS=     97
   number of dos      NEDOS =    301   number of ions     NIONS =     19
   non local maximal  LDIM  =      7   non local SUM 2l+1 LMDIM =     25
   total plane-waves  NPLWV = 252000
   max r-space proj   IRMAX =   8612   max aug-charges    IRDMAX=  31495
   dimension x,y,z NGX =    60 NGY =   50 NGZ =   84
   dimension x,y,z NGXF=   120 NGYF=  100 NGZF=  168
   support grid    NGXF=   120 NGYF=  100 NGZF=  168
   ions per type =               8   4   7
   NGX,Y,Z   is equivalent  to a cutoff of  12.84, 12.35, 12.58 a.u.
   NGXF,Y,Z  is equivalent  to a cutoff of  25.67, 24.70, 25.16 a.u.

 SYSTEM =  unknown system                          
 POSCAR =  Y8 C4 I7                                

 Startparameter for this run:
   NWRITE =      2    write-flag & timer
   PREC   = accura    normal or accurate (medium, high low for compatibility)
   ISTART =      0    job   : 0-new  1-cont  2-samecut
   ICHARG =      1    charge: 1-file 2-atom 10-const
   ISPIN  =      2    spin polarized calculation?
   LNONCOLLINEAR =      F non collinear calculations
   LSORBIT =      F    spin-orbit coupling
   INIWAV =      1    electr: 0-lowe 1-rand  2-diag
   LASPH  =      F    aspherical Exc in radial PAW
   METAGGA=      F    non-selfconsistent MetaGGA calc.

 Electronic Relaxation 1
   ENCUT  =  520.0 eV  38.22 Ry    6.18 a.u.  14.45 12.51 20.64*2*pi/ulx,y,z
   ENINI  =  520.0     initial cutoff
   ENAUG  =  644.9 eV  augmentation charge cutoff
   NELM   =    200;   NELMIN=  4; NELMDL= -5     # of ELM steps 
   EDIFF  = 0.1E-04   stopping-criterion for ELM
   LREAL  =      T    real-space projection
   NLSPLINE    = F    spline interpolate recip. space projectors
   LCOMPAT=      F    compatible to vasp.4.4
   GGA_COMPAT  = T    GGA compatible to vasp.4.4-vasp.4.6
   LMAXPAW     = -100 max onsite density
   LMAXMIX     =    2 max onsite mixed and CHGCAR
   VOSKOWN=      0    Vosko Wilk Nusair interpolation
   ROPT   =   -0.00025  -0.00025  -0.00025
 Ionic relaxation
   EDIFFG = -.2E-01   stopping-criterion for IOM
   NSW    =     99    number of steps for IOM
   NBLOCK =      1;   KBLOCK =     99    inner block; outer block 
   IBRION =      1    ionic relax: 0-MD 1-quasi-New 2-CG
   NFREE  =      0    steps in history (QN), initial steepest desc. (CG)
   ISIF   =      2    stress and relaxation
   IWAVPR =     11    prediction:  0-non 1-charg 2-wave 3-comb
   ISYM   =      0    0-nonsym 1-usesym 2-fastsym
   LCORR  =      T    Harris-Foulkes like correction to forces

   POTIM  = 0.5000    time-step for ionic-motion
   TEIN   =    0.0    initial temperature
   TEBEG  =    0.0;   TEEND  =   0.0 temperature during run
   SMASS  =  -3.00    Nose mass-parameter (am)
   estimated Nose-frequenzy (Omega)   =  0.10E-29 period in steps =****** mass=  -0.138E-26a.u.
   SCALEE = 1.0000    scale energy and forces
   NPACO  =    256;   APACO  = 16.0  distance and # of slots for P.C.
   PSTRESS=    0.0 pullay stress

  Mass of Ions in am
   POMASS =  88.91 12.01126.90
  Ionic Valenz
   ZVAL   =  11.00  4.00  7.00
  Atomic Wigner-Seitz radii
   RWIGS  =  -1.00 -1.00 -1.00
  virtual crystal weights 
   VCA    =   1.00  1.00  1.00
   NELECT =     153.0000    total number of electrons
   NUPDOWN=      -1.0000    fix difference up-down

 DOS related values:
   EMIN   =  10.00;   EMAX   =-10.00  energy-range for DOS
   EFERMI =   0.00
   ISMEAR =     0;   SIGMA  =   0.20  broadening in eV -4-tet -1-fermi 0-gaus

 Electronic relaxation 2 (details)
   IALGO  =     38    algorithm
   LDIAG  =      T    sub-space diagonalisation (order eigenvalues)
   LSUBROT=      F    optimize rotation matrix (better conditioning)
   TURBO    =      0    0=normal 1=particle mesh
   IRESTART =      0    0=no restart 2=restart with 2 vectors
   NREBOOT  =      0    no. of reboots
   NMIN     =      0    reboot dimension
   EREF     =   0.00    reference energy to select bands
   IMIX   =      4    mixing-type and parameters
     AMIX     =   0.40;   BMIX     =  1.00
     AMIX_MAG =   1.60;   BMIX_MAG =  1.00
     AMIN     =   0.10
     WC   =   100.;   INIMIX=   1;  MIXPRE=   1;  MAXMIX= -45

 Intra band minimization:
   WEIMIN = 0.0010     energy-eigenvalue tresh-hold
   EBREAK =  0.26E-07  absolut break condition
   DEPER  =   0.30     relativ break condition  

   TIME   =   0.40     timestep for ELM

  volume/ion in A,a.u.               =      30.55       206.16
  Fermi-wavevector in a.u.,A,eV,Ry     =   1.049675  1.983598 14.991144  1.101818
  Thomas-Fermi vector in A             =   2.184647

 Write flags
   LWAVE        =      F    write WAVECAR
   LDOWNSAMPLE  =      F    k-point downsampling of WAVECAR
   LCHARG       =      T    write CHGCAR
   LVTOT        =      F    write LOCPOT, total local potential
   LVHAR        =      F    write LOCPOT, Hartree potential only
   LELF         =      F    write electronic localiz. function (ELF)
   LORBIT       =     11    0 simple, 1 ext, 2 COOP (PROOUT), +10 PAW based schemes


 Dipole corrections
   LMONO  =      F    monopole corrections only (constant potential shift)
   LDIPOL =      F    correct potential (dipole corrections)
   IDIPOL =      0    1-x, 2-y, 3-z, 4-all directions 
   EPSILON=  1.0000000 bulk dielectric constant

 Exchange correlation treatment:
   GGA     =    --    GGA type
   LEXCH   =     8    internal setting for exchange type
   VOSKOWN=      0    Vosko Wilk Nusair interpolation
   LHFCALC =     F    Hartree Fock is set to
   LHFONE  =     F    Hartree Fock one center treatment
   AEXX    =    0.0000 exact exchange contribution

 Linear response parameters
   LEPSILON=     F    determine dielectric tensor
   LRPA    =     F    only Hartree local field effects (RPA)
   LNABLA  =     F    use nabla operator in PAW spheres
   LVEL    =     F    velocity operator in full k-point grid
   LINTERFAST=   F  fast interpolation
   KINTER  =     0    interpolate to denser k-point grid
   CSHIFT  =0.1000    complex shift for real part using Kramers Kronig
   OMEGAMAX=  -1.0    maximum frequency
   DEG_THRESHOLD= 0.2000000E-02 threshold for treating states as degnerate
   RTIME   =   -0.100 relaxation time in fs
  (WPLASMAI=    0.000 imaginary part of plasma frequency in eV, 0.658/RTIME)
   DFIELD  = 0.0000000 0.0000000 0.0000000 field for delta impulse in time

 Orbital magnetization related:
   ORBITALMAG=     F  switch on orbital magnetization
   LCHIMAG   =     F  perturbation theory with respect to B field
   DQ        =  0.001000  dq finite difference perturbation B field
   LLRAUG    =     F  two centre corrections for induced B field



--------------------------------------------------------------------------------------------------------


 quasi-Newton-method for relaxation of ions
 charge density and potential will be updated during run
 spin polarized calculation
 Variant of blocked Davidson
 Davidson routine will perform the subspace rotation
 perform sub-space diagonalisation
    after iterative eigenvector-optimisation
 modified Broyden-mixing scheme, WC =      100.0
 initial mixing is a Kerker type mixing with AMIX =  0.4000 and BMIX =      1.0000
 Hartree-type preconditioning will be used
 using additional bands           20
 real space projection scheme for non local part
 use partial core corrections
 calculate Harris-corrections to forces   (improved forces if not selfconsistent)
 use gradient corrections 
 use of overlap-Matrix (Vanderbilt PP)
 Gauss-broadening in eV      SIGMA  =   0.20


--------------------------------------------------------------------------------------------------------


  energy-cutoff  :      520.00
  volume of cell :      580.43
      direct lattice vectors                 reciprocal lattice vectors
     7.770644000  0.000004000  0.000000000     0.128689463 -0.000000038  0.000000012
     0.000002000  6.729576000  0.000000000    -0.000000076  0.148597772  0.000000013
    -0.000001000 -0.000001000 11.099577000     0.000000000  0.000000000  0.090093523

  length of vectors
     7.770644000  6.729576000 11.099577000     0.128689463  0.148597772  0.090093523



 k-points in units of 2pi/SCALE and weight: read from INCAR                         
   0.00000000  0.00000000  0.00000000       0.125
   0.06434473 -0.00000002  0.00000001       0.125
  -0.00000004  0.07429889  0.00000001       0.125
   0.06434469  0.07429887  0.00000001       0.125
   0.00000000  0.00000000  0.04504676       0.125
   0.06434473 -0.00000002  0.04504677       0.125
  -0.00000004  0.07429889  0.04504677       0.125
   0.06434469  0.07429887  0.04504677       0.125

 k-points in reciprocal lattice and weights: read from INCAR                         
   0.00000000  0.00000000  0.00000000       0.125
   0.50000000  0.00000000  0.00000000       0.125
   0.00000000  0.50000000  0.00000000       0.125
   0.50000000  0.50000000  0.00000000       0.125
   0.00000000  0.00000000  0.50000000       0.125
   0.50000000  0.00000000  0.50000000       0.125
   0.00000000  0.50000000  0.50000000       0.125
   0.50000000  0.50000000  0.50000000       0.125

 position of ions in fractional coordinates (direct lattice) 
   0.99906400  0.33443300  0.11973000
   0.50615100  0.33675900  0.11741900
   0.25102400  0.83112800  0.12116600
   0.75132700  0.83208000  0.11975600
   0.25038700  0.15059000  0.90027400
   0.76411700  0.16942800  0.87922600
   0.50411500  0.67496200  0.88855300
   0.00113500  0.67398800  0.88636400
   0.99689500  0.00120600  0.99973900
   0.50815000  0.00250200  0.99857000
   0.25137200  0.49863200  0.99998200
   0.75664300  0.49794300  0.99260000
   0.25226400  0.16519200  0.30891500
   0.75093000  0.16855400  0.31481200
   0.50269200  0.66810900  0.31208600
   0.99859900  0.66798200  0.31247600
   0.18952300  0.33147800  0.66803400
   0.25690300  0.81298400  0.68807900
   0.75016600  0.84872000  0.68501600

 position of ions in cartesian coordinates  (Angst):
   7.76337123  2.25059617  1.32895235
   3.93311979  2.26624719  1.30330123
   1.95061968  5.59313992  1.34489135
   5.83829619  5.59954848  1.32924094
   1.94566764  1.01340695  9.99266058
   5.93768064  1.14018078  9.75903669
   3.91729866  4.54220920  9.86256244
   0.00882014  4.53565259  9.83826547
   7.74651515  0.00811886 11.09668001
   3.94865176  0.01683843 11.08370460
   1.95332232  3.35558195 11.09937721
   5.87960339  3.35094730 11.01744013
   1.96025376  1.11167282  3.42882583
   5.83520972  1.13429964  3.49428003
   3.90624160  4.49609199  3.46402259
   7.75975835  4.49523932  3.46835142
   1.47271576  2.23070648  7.41489482
   1.99630269  5.47103795  7.63738584
   5.82927394  5.71152806  7.60338784



--------------------------------------------------------------------------------------------------------


 k-point  1 :   0.0000 0.0000 0.0000  plane waves:   15669
 k-point  2 :   0.5000 0.0000 0.0000  plane waves:   15660
 k-point  3 :   0.0000 0.5000 0.0000  plane waves:   15674
 k-point  4 :   0.5000 0.5000 0.0000  plane waves:   15604
 k-point  5 :   0.0000 0.0000 0.5000  plane waves:   15634
 k-point  6 :   0.5000 0.0000 0.5000  plane waves:   15620
 k-point  7 :   0.0000 0.5000 0.5000  plane waves:   15576
 k-point  8 :   0.5000 0.5000 0.5000  plane waves:   15592

 maximum and minimum number of plane-waves per node :      5250     5163

 maximum number of plane-waves:     15674
 maximum index in each direction: 
   IXMAX=   14   IYMAX=   12   IZMAX=   20
   IXMIN=  -14   IYMIN=  -13   IZMIN=  -21


 real space projection operators:
  total allocation   :      16953.20 KBytes
  max/ min on nodes  :       5677.87       5635.18


 parallel 3D FFT for wavefunctions:
    minimum data exchange during FFTs selected (reduces bandwidth)
 parallel 3D FFT for charge:
    minimum data exchange during FFTs selected (reduces bandwidth)


 total amount of memory used by VASP MPI-rank0   265336. kBytes
=======================================================================

   base      :      30000. kBytes
   nonlr-proj:       9757. kBytes
   fftplans  :      25286. kBytes
   grid      :      66476. kBytes
   one-center:        420. kBytes
   wavefun   :     133397. kBytes

     INWAV:  cpu time    0.0001: real time    0.0001
 Broyden mixing: mesh for mixing (old mesh)
   NGX = 29   NGY = 25   NGZ = 41
  (NGX  =120   NGY  =100   NGZ  =168)
  gives a total of  29725 points

 initial charge density was supplied:
 charge density of overlapping atoms calculated
 number of electron     153.0000000 magnetization      11.4000000
 keeping initial charge density in first step


--------------------------------------------------------------------------------------------------------


 Maximum index for non-local projection operator         2786
 Maximum index for augmentation-charges        10172 (set IRDMAX)


--------------------------------------------------------------------------------------------------------


 First call to EWALD:  gamma=   0.212
 Maximum number of real-space cells 3x 3x 2
 Maximum number of reciprocal cells 3x 2x 3

    FEWALD:  cpu time    0.0088: real time    0.0088


--------------------------------------- Iteration      1(   1)  ---------------------------------------


    POTLOK:  cpu time    1.6564: real time    1.6664
    SETDIJ:  cpu time    0.1215: real time    0.1223
     EDDAV:  cpu time   60.9509: real time   61.3944
       DOS:  cpu time    0.0040: real time    0.0041
    --------------------------------------------
      LOOP:  cpu time   62.7329: real time   63.1873

 eigenvalue-minimisations  :  3104
 total energy-change (2. order) : 0.1044893E+04  (-0.6857131E+04)
 number of electron     153.0000000 magnetization      11.4000000
 augmentation part      153.0000000 magnetization      11.4000000

 Free energy of the ion-electron system (eV)
  ---------------------------------------------------
  alpha Z        PSCENC =       490.14769152
  Ewald energy   TEWEN  =     -5506.38048582
  -Hartree energ DENC   =     -5178.36999024
  -exchange      EXHF   =         0.00000000
  -V(xc)+E(xc)   XCENC  =       295.82734365
  PAW double counting   =      8755.10086986    -8465.77839650
  entropy T*S    EENTRO =        -0.13828401
  eigenvalues    EBANDS =      -520.48486169
  atomic energy  EATOM  =     11174.96942390
  Solvation  Ediel_sol  =         0.00000000
  ---------------------------------------------------
  free energy    TOTEN  =      1044.89331068 eV

  energy without entropy =     1045.03159469  energy(sigma->0) =     1044.96245268


--------------------------------------------------------------------------------------------------------




--------------------------------------- Iteration      1(   2)  ---------------------------------------


     EDDAV:  cpu time   73.6451: real time   74.1904
       DOS:  cpu time    0.0038: real time    0.0038
    --------------------------------------------
      LOOP:  cpu time   73.6488: real time   74.1941

 eigenvalue-minimisations  :  3673
 total energy-change (2. order) :-0.1055461E+04  (-0.1012533E+04)
 number of electron     153.0000000 magnetization      11.4000000
 augmentation part      153.0000000 magnetization      11.4000000

 Free energy of the ion-electron system (eV)
  ---------------------------------------------------
  alpha Z        PSCENC =       490.14769152
  Ewald energy   TEWEN  =     -5506.38048582
  -Hartree energ DENC   =     -5178.36999024
  -exchange      EXHF   =         0.00000000
  -V(xc)+E(xc)   XCENC  =       295.82734365
  PAW double counting   =      8755.10086986    -8465.77839650
  entropy T*S    EENTRO =        -0.10387149
  eigenvalues    EBANDS =     -1575.98071540
  atomic energy  EATOM  =     11174.96942390
  Solvation  Ediel_sol  =         0.00000000
  ---------------------------------------------------
  free energy    TOTEN  =       -10.56813051 eV

  energy without entropy =      -10.46425902  energy(sigma->0) =      -10.51619476


--------------------------------------------------------------------------------------------------------




--------------------------------------- Iteration      1(   3)  ---------------------------------------


     EDDAV:  cpu time   83.4239: real time   84.0300
       DOS:  cpu time    0.0036: real time    0.0036
    --------------------------------------------
      LOOP:  cpu time   83.4275: real time   84.0337

 eigenvalue-minimisations  :  4265
 total energy-change (2. order) :-0.1148439E+03  (-0.1132183E+03)
 number of electron     153.0000000 magnetization      11.4000000
 augmentation part      153.0000000 magnetization      11.4000000

 Free energy of the ion-electron system (eV)
  ---------------------------------------------------
  alpha Z        PSCENC =       490.14769152
  Ewald energy   TEWEN  =     -5506.38048582
  -Hartree energ DENC   =     -5178.36999024
  -exchange      EXHF   =         0.00000000
  -V(xc)+E(xc)   XCENC  =       295.82734365
  PAW double counting   =      8755.10086986    -8465.77839650
  entropy T*S    EENTRO =        -0.11573547
  eigenvalues    EBANDS =     -1690.81274643
  atomic energy  EATOM  =     11174.96942390
  Solvation  Ediel_sol  =         0.00000000
  ---------------------------------------------------
  free energy    TOTEN  =      -125.41202552 eV

  energy without entropy =     -125.29629005  energy(sigma->0) =     -125.35415778


--------------------------------------------------------------------------------------------------------




--------------------------------------- Iteration      1(   4)  ---------------------------------------


     EDDAV:  cpu time   97.7765: real time   98.4811
       DOS:  cpu time    0.0039: real time    0.0039
    --------------------------------------------
      LOOP:  cpu time   97.7803: real time   98.4849

 eigenvalue-minimisations  :  5320
 total energy-change (2. order) :-0.1175394E+02  (-0.1171310E+02)
 number of electron     153.0000000 magnetization      11.4000000
 augmentation part      153.0000000 magnetization      11.4000000

 Free energy of the ion-electron system (eV)
  ---------------------------------------------------
  alpha Z        PSCENC =       490.14769152
  Ewald energy   TEWEN  =     -5506.38048582
  -Hartree energ DENC   =     -5178.36999024
  -exchange      EXHF   =         0.00000000
  -V(xc)+E(xc)   XCENC  =       295.82734365
  PAW double counting   =      8755.10086986    -8465.77839650
  entropy T*S    EENTRO =        -0.11613428
  eigenvalues    EBANDS =     -1702.56628410
  atomic energy  EATOM  =     11174.96942390
  Solvation  Ediel_sol  =         0.00000000
  ---------------------------------------------------
  free energy    TOTEN  =      -137.16596200 eV

  energy without entropy =     -137.04982772  energy(sigma->0) =     -137.10789486


--------------------------------------------------------------------------------------------------------




--------------------------------------- Iteration      1(   5)  ---------------------------------------


     EDDAV:  cpu time   92.9371: real time   93.6145
       DOS:  cpu time    0.0050: real time    0.0050
    CHARGE:  cpu time    3.1261: real time    3.1479
    MIXING:  cpu time    0.0351: real time    0.0354
    --------------------------------------------
      LOOP:  cpu time   96.1034: real time   96.8028

 eigenvalue-minimisations  :  4936
 total energy-change (2. order) :-0.8699140E+00  (-0.8694707E+00)
 number of electron     152.9999998 magnetization       7.2783586
 augmentation part        6.5321104 magnetization       6.5588760

 Broyden mixing:
  rms(total) = 0.79089E+01    rms(broyden)= 0.79088E+01
  rms(prec ) = 0.83635E+01
  weight for this iteration     100.00

 Free energy of the ion-electron system (eV)
  ---------------------------------------------------
  alpha Z        PSCENC =       490.14769152
  Ewald energy   TEWEN  =     -5506.38048582
  -Hartree energ DENC   =     -5178.36999024
  -exchange      EXHF   =         0.00000000
  -V(xc)+E(xc)   XCENC  =       295.82734365
  PAW double counting   =      8755.10086986    -8465.77839650
  entropy T*S    EENTRO =        -0.11592205
  eigenvalues    EBANDS =     -1703.43641035
  atomic energy  EATOM  =     11174.96942390
  Solvation  Ediel_sol  =         0.00000000
  ---------------------------------------------------
  free energy    TOTEN  =      -138.03587603 eV

  energy without entropy =     -137.91995397  energy(sigma->0) =     -137.97791500


--------------------------------------------------------------------------------------------------------




--------------------------------------- Iteration      1(   6)  ---------------------------------------


    POTLOK:  cpu time    2.3912: real time    2.4090
    SETDIJ:  cpu time    0.1939: real time    0.1953
     EDDAV:  cpu time   77.1897: real time   77.7459
       DOS:  cpu time    0.0038: real time    0.0039
    CHARGE:  cpu time    2.6830: real time    2.7005
    MIXING:  cpu time    0.0359: real time    0.0362
    --------------------------------------------
      LOOP:  cpu time   82.4976: real time   83.0908

 eigenvalue-minimisations  :  3951
 total energy-change (2. order) : 0.2381616E+02  (-0.1263933E+02)
 number of electron     152.9999999 magnetization       4.2814650
 augmentation part        6.5474954 magnetization       3.6925579

 Broyden mixing:
  rms(total) = 0.67404E+01    rms(broyden)= 0.67404E+01
  rms(prec ) = 0.67656E+01
  weight for this iteration     100.00

 eigenvalues of (default mixing * dielectric matrix)
  average eigenvalue GAMMA=   1.2274
  1.2274

 Free energy of the ion-electron system (eV)
  ---------------------------------------------------
  alpha Z        PSCENC =       490.14769152
  Ewald energy   TEWEN  =     -5506.38048582
  -Hartree energ DENC   =     -5187.67485035
  -exchange      EXHF   =         0.00000000
  -V(xc)+E(xc)   XCENC  =       296.37500199
  PAW double counting   =     11009.94674516   -10735.95704765
  entropy T*S    EENTRO =        -0.05739025
  eigenvalues    EBANDS =     -1655.58880345
  atomic energy  EATOM  =     11174.96942390
  Solvation  Ediel_sol  =         0.00000000
  ---------------------------------------------------
  free energy    TOTEN  =      -114.21971496 eV

  energy without entropy =     -114.16232471  energy(sigma->0) =     -114.19101983


--------------------------------------------------------------------------------------------------------




--------------------------------------- Iteration      1(   7)  ---------------------------------------


    POTLOK:  cpu time    2.3051: real time    2.3215
    SETDIJ:  cpu time    0.1974: real time    0.1988
     EDDAV:  cpu time   80.3330: real time   80.9165
       DOS:  cpu time    0.0038: real time    0.0038
    CHARGE:  cpu time    2.9656: real time    2.9858
    MIXING:  cpu time    0.0401: real time    0.0404
    --------------------------------------------
      LOOP:  cpu time   85.8449: real time   86.4668

 eigenvalue-minimisations  :  4144
 total energy-change (2. order) :-0.1305980E+01  (-0.2092979E+01)
 number of electron     152.9999999 magnetization       1.0618443
 augmentation part        5.3605585 magnetization       0.6196763

 Broyden mixing:
  rms(total) = 0.37003E+01    rms(broyden)= 0.37003E+01
  rms(prec ) = 0.37169E+01
  weight for this iteration     100.00

 eigenvalues of (default mixing * dielectric matrix)
  average eigenvalue GAMMA=   1.5861
  0.7143  2.4579

 Free energy of the ion-electron system (eV)
  ---------------------------------------------------
  alpha Z        PSCENC =       490.14769152
  Ewald energy   TEWEN  =     -5506.38048582
  -Hartree energ DENC   =     -5169.47220759
  -exchange      EXHF   =         0.00000000
  -V(xc)+E(xc)   XCENC  =       294.52647906
  PAW double counting   =     13101.16311147   -12836.38748360
  entropy T*S    EENTRO =        -0.06281262
  eigenvalues    EBANDS =     -1664.02941144
  atomic energy  EATOM  =     11174.96942390
  Solvation  Ediel_sol  =         0.00000000
  ---------------------------------------------------
  free energy    TOTEN  =      -115.52569513 eV

  energy without entropy =     -115.46288251  energy(sigma->0) =     -115.49428882


--------------------------------------------------------------------------------------------------------




--------------------------------------- Iteration      1(   8)  ---------------------------------------


    POTLOK:  cpu time    2.3564: real time    2.3737
    SETDIJ:  cpu time    0.1918: real time    0.1933
     EDDAV:  cpu time   79.4150: real time   79.9920
       DOS:  cpu time    0.0037: real time    0.0038
    CHARGE:  cpu time    3.2597: real time    3.2824
    MIXING:  cpu time    0.0451: real time    0.0454
    --------------------------------------------
      LOOP:  cpu time   85.2718: real time   85.8905

 eigenvalue-minimisations  :  4032
 total energy-change (2. order) :-0.4186623E+00  (-0.6680907E+00)
 number of electron     152.9999999 magnetization       0.7061762
 augmentation part        5.2087500 magnetization       0.3868798

 Broyden mixing:
  rms(total) = 0.11342E+01    rms(broyden)= 0.11342E+01
  rms(prec ) = 0.11906E+01
  weight for this iteration     100.00

 eigenvalues of (default mixing * dielectric matrix)
  average eigenvalue GAMMA=   1.3233
  2.4158  0.9255  0.6285

 Free energy of the ion-electron system (eV)
  ---------------------------------------------------
  alpha Z        PSCENC =       490.14769152
  Ewald energy   TEWEN  =     -5506.38048582
  -Hartree energ DENC   =     -5181.36709155
  -exchange      EXHF   =         0.00000000
  -V(xc)+E(xc)   XCENC  =       294.22802223
  PAW double counting   =     15051.65118928   -14781.86371949
  entropy T*S    EENTRO =        -0.08691547
  eigenvalues    EBANDS =     -1657.24247202
  atomic energy  EATOM  =     11174.96942390
  Solvation  Ediel_sol  =         0.00000000
  ---------------------------------------------------
  free energy    TOTEN  =      -115.94435741 eV

  energy without entropy =     -115.85744194  energy(sigma->0) =     -115.90089968


--------------------------------------------------------------------------------------------------------




--------------------------------------- Iteration      1(   9)  ---------------------------------------


    POTLOK:  cpu time    2.1743: real time    2.1898
    SETDIJ:  cpu time    0.1597: real time    0.1608
     EDDAV:  cpu time   79.3994: real time   79.9668
       DOS:  cpu time    0.0040: real time    0.0040
    CHARGE:  cpu time    2.7187: real time    2.7362
    MIXING:  cpu time    0.0372: real time    0.0375
    --------------------------------------------
      LOOP:  cpu time   84.4933: real time   85.0951

 eigenvalue-minimisations  :  4288
 total energy-change (2. order) : 0.2539213E+00  (-0.1549331E+00)
 number of electron     152.9999999 magnetization       0.5581110
 augmentation part        4.9757243 magnetization       0.3398277

 Broyden mixing:
  rms(total) = 0.27578E+00    rms(broyden)= 0.27577E+00
  rms(prec ) = 0.30201E+00
  weight for this iteration     100.00

 eigenvalues of (default mixing * dielectric matrix)
  average eigenvalue GAMMA=   1.2316
  2.3708  0.9708  0.9708  0.6138

 Free energy of the ion-electron system (eV)
  ---------------------------------------------------
  alpha Z        PSCENC =       490.14769152
  Ewald energy   TEWEN  =     -5506.38048582
  -Hartree energ DENC   =     -5189.64730488
  -exchange      EXHF   =         0.00000000
  -V(xc)+E(xc)   XCENC  =       294.59509986
  PAW double counting   =     15159.38500921   -14887.43882979
  entropy T*S    EENTRO =        -0.08146075
  eigenvalues    EBANDS =     -1651.23957931
  atomic energy  EATOM  =     11174.96942390
  Solvation  Ediel_sol  =         0.00000000
  ---------------------------------------------------
  free energy    TOTEN  =      -115.69043606 eV

  energy without entropy =     -115.60897532  energy(sigma->0) =     -115.64970569


--------------------------------------------------------------------------------------------------------




--------------------------------------- Iteration      1(  10)  ---------------------------------------


    POTLOK:  cpu time    1.9155: real time    1.9286
    SETDIJ:  cpu time    0.1475: real time    0.1485
     EDDAV:  cpu time   75.4271: real time   75.9659
       DOS:  cpu time    0.0039: real time    0.0039
    CHARGE:  cpu time    2.7640: real time    2.7823
    MIXING:  cpu time    0.0389: real time    0.0391
    --------------------------------------------
      LOOP:  cpu time   80.2968: real time   80.8684

 eigenvalue-minimisations  :  4032
 total energy-change (2. order) :-0.1425988E-01  (-0.3719556E-01)
 number of electron     152.9999999 magnetization       0.3692283
 augmentation part        4.8919626 magnetization       0.2052012

 Broyden mixing:
  rms(total) = 0.14597E+00    rms(broyden)= 0.14596E+00
  rms(prec ) = 0.16800E+00
  weight for this iteration     100.00

 eigenvalues of (default mixing * dielectric matrix)
  average eigenvalue GAMMA=   1.2499
  2.2702  1.6676  0.8430  0.8430  0.6256

 Free energy of the ion-electron system (eV)
  ---------------------------------------------------
  alpha Z        PSCENC =       490.14769152
  Ewald energy   TEWEN  =     -5506.38048582
  -Hartree energ DENC   =     -5197.67958766
  -exchange      EXHF   =         0.00000000
  -V(xc)+E(xc)   XCENC  =       294.96815830
  PAW double counting   =     15152.50763794   -14876.78011638
  entropy T*S    EENTRO =        -0.08003795
  eigenvalues    EBANDS =     -1647.37737978
  atomic energy  EATOM  =     11174.96942390
  Solvation  Ediel_sol  =         0.00000000
  ---------------------------------------------------
  free energy    TOTEN  =      -115.70469594 eV

  energy without entropy =     -115.62465799  energy(sigma->0) =     -115.66467697


--------------------------------------------------------------------------------------------------------




--------------------------------------- Iteration      1(  11)  ---------------------------------------


    POTLOK:  cpu time    2.1603: real time    2.1761
    SETDIJ:  cpu time    0.1529: real time    0.1541
     EDDAV:  cpu time   77.2130: real time   77.7747
       DOS:  cpu time    0.0037: real time    0.0038
    CHARGE:  cpu time    2.7875: real time    2.8054
    MIXING:  cpu time    0.0423: real time    0.0426
    --------------------------------------------
      LOOP:  cpu time   82.3598: real time   82.9567

 eigenvalue-minimisations  :  4080
 total energy-change (2. order) :-0.2669026E-02  (-0.9003750E-02)
 number of electron     152.9999999 magnetization       0.2328851
 augmentation part        4.9029243 magnetization       0.1333505

 Broyden mixing:
  rms(total) = 0.54190E-01    rms(broyden)= 0.54189E-01
  rms(prec ) = 0.64770E-01
  weight for this iteration     100.00

 eigenvalues of (default mixing * dielectric matrix)
  average eigenvalue GAMMA=   1.2527
  2.1934  2.1934  0.8497  0.8497  0.6107  0.8190

 Free energy of the ion-electron system (eV)
  ---------------------------------------------------
  alpha Z        PSCENC =       490.14769152
  Ewald energy   TEWEN  =     -5506.38048582
  -Hartree energ DENC   =     -5206.18724149
  -exchange      EXHF   =         0.00000000
  -V(xc)+E(xc)   XCENC  =       295.31083494
  PAW double counting   =     15124.92311897   -14844.23475528
  entropy T*S    EENTRO =        -0.08201957
  eigenvalues    EBANDS =     -1644.17393215
  atomic energy  EATOM  =     11174.96942390
  Solvation  Ediel_sol  =         0.00000000
  ---------------------------------------------------
  free energy    TOTEN  =      -115.70736497 eV

  energy without entropy =     -115.62534540  energy(sigma->0) =     -115.66635518


--------------------------------------------------------------------------------------------------------




--------------------------------------- Iteration      1(  12)  ---------------------------------------


    POTLOK:  cpu time    2.3411: real time    2.3582
    SETDIJ:  cpu time    0.1991: real time    0.2006
     EDDAV:  cpu time   80.6979: real time   81.2783
       DOS:  cpu time    0.0038: real time    0.0038
    CHARGE:  cpu time    2.7446: real time    2.7628
    MIXING:  cpu time    0.0384: real time    0.0387
    --------------------------------------------
      LOOP:  cpu time   86.0249: real time   86.6425

 eigenvalue-minimisations  :  4248
 total energy-change (2. order) :-0.2240163E-02  (-0.1003488E-02)
 number of electron     152.9999999 magnetization       0.1534034
 augmentation part        4.9265772 magnetization       0.0920664

 Broyden mixing:
  rms(total) = 0.32517E-01    rms(broyden)= 0.32517E-01
  rms(prec ) = 0.38060E-01
  weight for this iteration     100.00

 eigenvalues of (default mixing * dielectric matrix)
  average eigenvalue GAMMA=   1.2372
  2.2476  2.2476  1.2317  0.8518  0.8518  0.6151  0.6151

 Free energy of the ion-electron system (eV)
  ---------------------------------------------------
  alpha Z        PSCENC =       490.14769152
  Ewald energy   TEWEN  =     -5506.38048582
  -Hartree energ DENC   =     -5209.21049217
  -exchange      EXHF   =         0.00000000
  -V(xc)+E(xc)   XCENC  =       295.43761569
  PAW double counting   =     15144.97291256   -14862.90279869
  entropy T*S    EENTRO =        -0.08335901
  eigenvalues    EBANDS =     -1642.66011311
  atomic energy  EATOM  =     11174.96942390
  Solvation  Ediel_sol  =         0.00000000
  ---------------------------------------------------
  free energy    TOTEN  =      -115.70960513 eV

  energy without entropy =     -115.62624612  energy(sigma->0) =     -115.66792562


--------------------------------------------------------------------------------------------------------




--------------------------------------- Iteration      1(  13)  ---------------------------------------


    POTLOK:  cpu time    2.0864: real time    2.1013
    SETDIJ:  cpu time    0.1708: real time    0.1720
     EDDAV:  cpu time   82.5110: real time   83.1073
       DOS:  cpu time    0.0038: real time    0.0038
    CHARGE:  cpu time    2.7583: real time    2.7763
    MIXING:  cpu time    0.0512: real time    0.0515
    --------------------------------------------
      LOOP:  cpu time   87.5815: real time   88.2124

 eigenvalue-minimisations  :  4288
 total energy-change (2. order) :-0.1454529E-02  (-0.2885144E-03)
 number of electron     152.9999999 magnetization       0.0816391
 augmentation part        4.9344684 magnetization       0.0362803

 Broyden mixing:
  rms(total) = 0.15792E-01    rms(broyden)= 0.15792E-01
  rms(prec ) = 0.20729E-01
  weight for this iteration     100.00

 eigenvalues of (default mixing * dielectric matrix)
  average eigenvalue GAMMA=   1.2718
  2.3767  2.3767  1.3609  1.1402  0.8437  0.8437  0.6299  0.6028

 Free energy of the ion-electron system (eV)
  ---------------------------------------------------
  alpha Z        PSCENC =       490.14769152
  Ewald energy   TEWEN  =     -5506.38048582
  -Hartree energ DENC   =     -5210.42768990
  -exchange      EXHF   =         0.00000000
  -V(xc)+E(xc)   XCENC  =       295.48198297
  PAW double counting   =     15157.40028722   -14875.00497664
  entropy T*S    EENTRO =        -0.08366584
  eigenvalues    EBANDS =     -1641.81362707
  atomic energy  EATOM  =     11174.96942390
  Solvation  Ediel_sol  =         0.00000000
  ---------------------------------------------------
  free energy    TOTEN  =      -115.71105966 eV

  energy without entropy =     -115.62739382  energy(sigma->0) =     -115.66922674


--------------------------------------------------------------------------------------------------------




--------------------------------------- Iteration      1(  14)  ---------------------------------------


    POTLOK:  cpu time    2.1895: real time    2.2049
    SETDIJ:  cpu time    0.1906: real time    0.1920
     EDDAV:  cpu time   73.7824: real time   74.3144
       DOS:  cpu time    0.0038: real time    0.0038
    CHARGE:  cpu time    2.7460: real time    2.7638
    MIXING:  cpu time    0.0396: real time    0.0399
    --------------------------------------------
      LOOP:  cpu time   78.9518: real time   79.5188

 eigenvalue-minimisations  :  3848
 total energy-change (2. order) :-0.1246913E-02  (-0.2256335E-03)
 number of electron     152.9999999 magnetization       0.0359451
 augmentation part        4.9385660 magnetization       0.0102314

 Broyden mixing:
  rms(total) = 0.91586E-02    rms(broyden)= 0.91584E-02
  rms(prec ) = 0.12321E-01
  weight for this iteration     100.00

 eigenvalues of (default mixing * dielectric matrix)
  average eigenvalue GAMMA=   1.3168
  2.5252  2.5252  1.6595  1.3916  0.8551  0.8551  0.8051  0.6173  0.6173

 Free energy of the ion-electron system (eV)
  ---------------------------------------------------
  alpha Z        PSCENC =       490.14769152
  Ewald energy   TEWEN  =     -5506.38048582
  -Hartree energ DENC   =     -5211.62686135
  -exchange      EXHF   =         0.00000000
  -V(xc)+E(xc)   XCENC  =       295.52158839
  PAW double counting   =     15160.59123758   -14877.90659168
  entropy T*S    EENTRO =        -0.08350746
  eigenvalues    EBANDS =     -1640.94480164
  atomic energy  EATOM  =     11174.96942390
  Solvation  Ediel_sol  =         0.00000000
  ---------------------------------------------------
  free energy    TOTEN  =      -115.71230657 eV

  energy without entropy =     -115.62879911  energy(sigma->0) =     -115.67055284


--------------------------------------------------------------------------------------------------------




--------------------------------------- Iteration      1(  15)  ---------------------------------------


    POTLOK:  cpu time    2.1069: real time    2.1224
    SETDIJ:  cpu time    0.1478: real time    0.1489
     EDDAV:  cpu time   75.4542: real time   75.9970
       DOS:  cpu time    0.0058: real time    0.0058
    CHARGE:  cpu time    2.7279: real time    2.7457
    MIXING:  cpu time    0.0413: real time    0.0416
    --------------------------------------------
      LOOP:  cpu time   80.4839: real time   81.0613

 eigenvalue-minimisations  :  3936
 total energy-change (2. order) :-0.5113599E-03  (-0.6888059E-04)
 number of electron     152.9999999 magnetization       0.0105593
 augmentation part        4.9434645 magnetization      -0.0002789

 Broyden mixing:
  rms(total) = 0.45954E-02    rms(broyden)= 0.45954E-02
  rms(prec ) = 0.62727E-02
  weight for this iteration     100.00

 eigenvalues of (default mixing * dielectric matrix)
  average eigenvalue GAMMA=   1.3349
  2.5539  2.5539  2.2238  1.4371  0.9883  0.8204  0.8204  0.6129  0.6729  0.6655

 Free energy of the ion-electron system (eV)
  ---------------------------------------------------
  alpha Z        PSCENC =       490.14769152
  Ewald energy   TEWEN  =     -5506.38048582
  -Hartree energ DENC   =     -5212.07557977
  -exchange      EXHF   =         0.00000000
  -V(xc)+E(xc)   XCENC  =       295.53696794
  PAW double counting   =     15163.49664792   -14880.89296182
  entropy T*S    EENTRO =        -0.08352732
  eigenvalues    EBANDS =     -1640.43099450
  atomic energy  EATOM  =     11174.96942390
  Solvation  Ediel_sol  =         0.00000000
  ---------------------------------------------------
  free energy    TOTEN  =      -115.71281793 eV

  energy without entropy =     -115.62929061  energy(sigma->0) =     -115.67105427


--------------------------------------------------------------------------------------------------------




--------------------------------------- Iteration      1(  16)  ---------------------------------------


    POTLOK:  cpu time    2.0762: real time    2.0910
    SETDIJ:  cpu time    0.1561: real time    0.1572
     EDDAV:  cpu time   66.6182: real time   67.0982
       DOS:  cpu time    0.0039: real time    0.0039
    CHARGE:  cpu time    2.8089: real time    2.8293
    MIXING:  cpu time    0.0357: real time    0.0360
    --------------------------------------------
      LOOP:  cpu time   71.6989: real time   72.2155

 eigenvalue-minimisations  :  3416
 total energy-change (2. order) :-0.1643825E-03  (-0.2735446E-04)
 number of electron     152.9999999 magnetization       0.0018563
 augmentation part        4.9449465 magnetization      -0.0022199

 Broyden mixing:
  rms(total) = 0.22161E-02    rms(broyden)= 0.22159E-02
  rms(prec ) = 0.28548E-02
  weight for this iteration     100.00

 eigenvalues of (default mixing * dielectric matrix)
  average eigenvalue GAMMA=   1.3643
  3.1813  2.3728  2.3728  1.5806  1.0685  0.8274  0.8274  0.8197  0.7162  0.6205
  0.6205

 Free energy of the ion-electron system (eV)
  ---------------------------------------------------
  alpha Z        PSCENC =       490.14769152
  Ewald energy   TEWEN  =     -5506.38048582
  -Hartree energ DENC   =     -5212.25462354
  -exchange      EXHF   =         0.00000000
  -V(xc)+E(xc)   XCENC  =       295.54288081
  PAW double counting   =     15164.17970139   -14881.69634521
  entropy T*S    EENTRO =        -0.08352112
  eigenvalues    EBANDS =     -1640.13770423
  atomic energy  EATOM  =     11174.96942390
  Solvation  Ediel_sol  =         0.00000000
  ---------------------------------------------------
  free energy    TOTEN  =      -115.71298232 eV

  energy without entropy =     -115.62946119  energy(sigma->0) =     -115.67122175


--------------------------------------------------------------------------------------------------------




--------------------------------------- Iteration      1(  17)  ---------------------------------------


    POTLOK:  cpu time    1.6923: real time    1.7036
    SETDIJ:  cpu time    0.1253: real time    0.1262
     EDDAV:  cpu time   50.5451: real time   50.9007
       DOS:  cpu time    0.0036: real time    0.0037
    CHARGE:  cpu time    2.3213: real time    2.3365
    MIXING:  cpu time    0.0321: real time    0.0323
    --------------------------------------------
      LOOP:  cpu time   54.7198: real time   55.1030

 eigenvalue-minimisations  :  3200
 total energy-change (2. order) :-0.3784713E-04  (-0.4646561E-05)
 number of electron     152.9999999 magnetization      -0.0004199
 augmentation part        4.9453550 magnetization      -0.0011099

 Broyden mixing:
  rms(total) = 0.12511E-02    rms(broyden)= 0.12510E-02
  rms(prec ) = 0.15301E-02
  weight for this iteration     100.00

 eigenvalues of (default mixing * dielectric matrix)
  average eigenvalue GAMMA=   1.3719
  3.3203  2.4247  2.4247  1.8095  1.1056  1.1056  0.8224  0.8224  0.7484  0.6065
  0.6360  0.6360

 Free energy of the ion-electron system (eV)
  ---------------------------------------------------
  alpha Z        PSCENC =       490.14769152
  Ewald energy   TEWEN  =     -5506.38048582
  -Hartree energ DENC   =     -5212.31720986
  -exchange      EXHF   =         0.00000000
  -V(xc)+E(xc)   XCENC  =       295.54449538
  PAW double counting   =     15162.75407274   -14880.32951653
  entropy T*S    EENTRO =        -0.08350230
  eigenvalues    EBANDS =     -1640.01798919
  atomic energy  EATOM  =     11174.96942390
  Solvation  Ediel_sol  =         0.00000000
  ---------------------------------------------------
  free energy    TOTEN  =      -115.71302016 eV

  energy without entropy =     -115.62951786  energy(sigma->0) =     -115.67126901


--------------------------------------------------------------------------------------------------------




--------------------------------------- Iteration      1(  18)  ---------------------------------------


    POTLOK:  cpu time    1.5308: real time    1.5401
    SETDIJ:  cpu time    0.1844: real time    0.1855
     EDDAV:  cpu time   32.3796: real time   32.6034
       DOS:  cpu time    0.0034: real time    0.0034
    --------------------------------------------
      LOOP:  cpu time   34.0980: real time   34.3324

 eigenvalue-minimisations  :  2456
 total energy-change (2. order) :-0.7814935E-05  (-0.6867739E-06)
 number of electron     152.9999999 magnetization      -0.0004199
 augmentation part        4.9453550 magnetization      -0.0011099

 Free energy of the ion-electron system (eV)
  ---------------------------------------------------
  alpha Z        PSCENC =       490.14769152
  Ewald energy   TEWEN  =     -5506.38048582
  -Hartree energ DENC   =     -5212.33141358
  -exchange      EXHF   =         0.00000000
  -V(xc)+E(xc)   XCENC  =       295.54449635
  PAW double counting   =     15161.50223605   -14879.10492087
  entropy T*S    EENTRO =        -0.08349970
  eigenvalues    EBANDS =     -1639.97655583
  atomic energy  EATOM  =     11174.96942390
  Solvation  Ediel_sol  =         0.00000000
  ---------------------------------------------------
  free energy    TOTEN  =      -115.71302798 eV

  energy without entropy =     -115.62952828  energy(sigma->0) =     -115.67127813


--------------------------------------------------------------------------------------------------------




 average (electrostatic) potential at core
  the test charge radii are     1.2780  0.6991  1.1875
  (the norm of the test charge is              1.0000)
       1 -36.8869       2 -36.8868       3 -36.9979       4 -36.9321       5 -36.6112
       6 -37.4054       7 -36.9842       8 -36.9631       9 -50.0007      10 -50.0078
      11 -49.9382      12 -50.0621      13 -92.7015      14 -92.7143      15 -92.7718
      16 -92.7659      17 -92.5221      18 -92.6626      19 -93.1471



 E-fermi :   3.5448     XC(G=0):  -8.6145     alpha+bet : -9.1734


 spin component 1

 k-point     1 :       0.0000    0.0000    0.0000
  band No.  band energies     occupation 
      1     -39.2899      1.00000
      2     -38.9019      1.00000
      3     -38.8741      1.00000
      4     -38.8549      1.00000
      5     -38.8206      1.00000
      6     -38.7825      1.00000
      7     -38.7735      1.00000
      8     -38.5307      1.00000
      9     -19.4160      1.00000
     10     -19.3145      1.00000
     11     -19.2913      1.00000
     12     -19.1416      1.00000
     13     -19.1047      1.00000
     14     -19.0922      1.00000
     15     -19.0369      1.00000
     16     -18.9802      1.00000
     17     -18.9421      1.00000
     18     -18.8899      1.00000
     19     -18.8764      1.00000
     20     -18.8510      1.00000
     21     -18.8356      1.00000
     22     -18.8229      1.00000
     23     -18.7985      1.00000
     24     -18.7784      1.00000
     25     -18.7578      1.00000
     26     -18.7282      1.00000
     27     -18.7182      1.00000
     28     -18.7130      1.00000
     29     -18.7080      1.00000
     30     -18.5793      1.00000
     31     -18.5170      1.00000
     32     -18.5049      1.00000
     33      -9.9845      1.00000
     34      -9.8927      1.00000
     35      -9.6309      1.00000
     36      -9.3144      1.00000
     37      -9.2789      1.00000
     38      -9.2477      1.00000
     39      -8.7833      1.00000
     40      -5.4212      1.00000
     41      -4.9791      1.00000
     42      -4.9261      1.00000
     43      -4.8022      1.00000
     44      -1.3196      1.00000
     45      -1.2401      1.00000
     46      -1.0099      1.00000
     47      -0.8176      1.00000
     48      -0.7321      1.00000
     49      -0.6977      1.00000
     50      -0.4842      1.00000
     51      -0.2144      1.00000
     52      -0.1418      1.00000
     53       0.1004      1.00000
     54       0.1191      1.00000
     55       0.2629      1.00000
     56       0.3087      1.00000
     57       0.3576      1.00000
     58       0.6616      1.00000
     59       0.7295      1.00000
     60       1.1808      1.00000
     61       1.2566      1.00000
     62       1.3796      1.00000
     63       1.5304      1.00000
     64       1.5404      1.00000
     65       1.6399      1.00000
     66       1.7443      1.00000
     67       1.7587      1.00000
     68       1.9149      1.00000
     69       1.9870      1.00000
     70       2.2322      1.00000
     71       2.3247      1.00000
     72       2.4703      1.00000
     73       2.5124      1.00000
     74       2.5668      1.00000
     75       2.6770      1.00000
     76       3.2688      0.97450
     77       3.4773      0.68342
     78       4.2306      0.00000
     79       4.4948      0.00000
     80       4.8137      0.00000
     81       4.8483      0.00000
     82       5.1972      0.00000
     83       5.2146      0.00000
     84       5.3590      0.00000
     85       5.6866      0.00000
     86       5.9348      0.00000
     87       6.4654      0.00000
     88       6.5890      0.00000
     89       6.6285      0.00000
     90       6.6609      0.00000
     91       6.7893      0.00000
     92       6.9248      0.00000
     93       6.9724      0.00000
     94       7.0862      0.00000
     95       7.1603      0.00000
     96       7.2573      0.00000
     97       7.3319      0.00000

 k-point     2 :       0.5000    0.0000    0.0000
  band No.  band energies     occupation 
      1     -39.2899      1.00000
      2     -38.8993      1.00000
      3     -38.8775      1.00000
      4     -38.8546      1.00000
      5     -38.8202      1.00000
      6     -38.7793      1.00000
      7     -38.7767      1.00000
      8     -38.5307      1.00000
      9     -19.4147      1.00000
     10     -19.3058      1.00000
     11     -19.2859      1.00000
     12     -19.1304      1.00000
     13     -19.0982      1.00000
     14     -19.0620      1.00000
     15     -18.9994      1.00000
     16     -18.9771      1.00000
     17     -18.9538      1.00000
     18     -18.9314      1.00000
     19     -18.8979      1.00000
     20     -18.8432      1.00000
     21     -18.8307      1.00000
     22     -18.8144      1.00000
     23     -18.7836      1.00000
     24     -18.7774      1.00000
     25     -18.7701      1.00000
     26     -18.7635      1.00000
     27     -18.7311      1.00000
     28     -18.7228      1.00000
     29     -18.7142      1.00000
     30     -18.5742      1.00000
     31     -18.5237      1.00000
     32     -18.5006      1.00000
     33      -9.8121      1.00000
     34      -9.7805      1.00000
     35      -9.7063      1.00000
     36      -9.6703      1.00000
     37      -9.2039      1.00000
     38      -9.1989      1.00000
     39      -8.7905      1.00000
     40      -5.2596      1.00000
     41      -5.1616      1.00000
     42      -4.9098      1.00000
     43      -4.7844      1.00000
     44      -1.2287      1.00000
     45      -0.8630      1.00000
     46      -0.8258      1.00000
     47      -0.5501      1.00000
     48      -0.4981      1.00000
     49      -0.3243      1.00000
     50      -0.2502      1.00000
     51      -0.1978      1.00000
     52      -0.0835      1.00000
     53      -0.0178      1.00000
     54       0.0068      1.00000
     55       0.0287      1.00000
     56       0.2450      1.00000
     57       0.2868      1.00000
     58       0.5240      1.00000
     59       0.5891      1.00000
     60       0.7033      1.00000
     61       0.8487      1.00000
     62       1.4621      1.00000
     63       1.4851      1.00000
     64       1.4996      1.00000
     65       1.5535      1.00000
     66       1.6620      1.00000
     67       1.7606      1.00000
     68       1.8469      1.00000
     69       1.9081      1.00000
     70       1.9649      1.00000
     71       2.0349      1.00000
     72       2.2299      1.00000
     73       2.2707      1.00000
     74       2.3690      1.00000
     75       2.6298      1.00000
     76       3.2698      0.97407
     77       4.4067      0.00000
     78       4.4836      0.00000
     79       4.5472      0.00000
     80       4.6377      0.00000
     81       4.9368      0.00000
     82       5.1884      0.00000
     83       5.2832      0.00000
     84       5.4821      0.00000
     85       5.7445      0.00000
     86       5.8437      0.00000
     87       6.0261      0.00000
     88       6.1249      0.00000
     89       6.2346      0.00000
     90       6.4983      0.00000
     91       6.5654      0.00000
     92       6.5926      0.00000
     93       6.7505      0.00000
     94       7.0810      0.00000
     95       7.1299      0.00000
     96       7.1944      0.00000
     97       7.3168      0.00000

 k-point     3 :       0.0000    0.5000    0.0000
  band No.  band energies     occupation 
      1     -39.2898      1.00000
      2     -38.9009      1.00000
      3     -38.8744      1.00000
      4     -38.8550      1.00000
      5     -38.8204      1.00000
      6     -38.7832      1.00000
      7     -38.7735      1.00000
      8     -38.5307      1.00000
      9     -19.4136      1.00000
     10     -19.3238      1.00000
     11     -19.2848      1.00000
     12     -19.1423      1.00000
     13     -19.1188      1.00000
     14     -19.0588      1.00000
     15     -19.0560      1.00000
     16     -18.9630      1.00000
     17     -18.9312      1.00000
     18     -18.9080      1.00000
     19     -18.8605      1.00000
     20     -18.8494      1.00000
     21     -18.8377      1.00000
     22     -18.8191      1.00000
     23     -18.8000      1.00000
     24     -18.7879      1.00000
     25     -18.7577      1.00000
     26     -18.7355      1.00000
     27     -18.7345      1.00000
     28     -18.7159      1.00000
     29     -18.7023      1.00000
     30     -18.5767      1.00000
     31     -18.5164      1.00000
     32     -18.5065      1.00000
     33      -9.8675      1.00000
     34      -9.6619      1.00000
     35      -9.6024      1.00000
     36      -9.4269      1.00000
     37      -9.3122      1.00000
     38      -9.2527      1.00000
     39      -9.1389      1.00000
     40      -5.2014      1.00000
     41      -5.1421      1.00000
     42      -4.9398      1.00000
     43      -4.8269      1.00000
     44      -1.3258      1.00000
     45      -1.2850      1.00000
     46      -0.9801      1.00000
     47      -0.6164      1.00000
     48      -0.4229      1.00000
     49      -0.3117      1.00000
     50      -0.2427      1.00000
     51      -0.0710      1.00000
     52       0.0456      1.00000
     53       0.1091      1.00000
     54       0.1320      1.00000
     55       0.1956      1.00000
     56       0.2320      1.00000
     57       0.5520      1.00000
     58       0.6552      1.00000
     59       1.1191      1.00000
     60       1.1888      1.00000
     61       1.2041      1.00000
     62       1.2834      1.00000
     63       1.3414      1.00000
     64       1.4732      1.00000
     65       1.5087      1.00000
     66       1.5554      1.00000
     67       1.6216      1.00000
     68       1.8220      1.00000
     69       1.9786      1.00000
     70       2.0248      1.00000
     71       2.2191      1.00000
     72       2.3784      1.00000
     73       2.4156      1.00000
     74       2.4688      1.00000
     75       2.5010      1.00000
     76       2.5681      1.00000
     77       3.4600      0.72567
     78       3.4975      0.63095
     79       4.0087      0.00052
     80       4.2438      0.00000
     81       4.9101      0.00000
     82       5.4436      0.00000
     83       5.7770      0.00000
     84       5.9040      0.00000
     85       6.0591      0.00000
     86       6.0719      0.00000
     87       6.3846      0.00000
     88       6.5849      0.00000
     89       6.7473      0.00000
     90       6.8097      0.00000
     91       6.9205      0.00000
     92       7.0461      0.00000
     93       7.0535      0.00000
     94       7.1213      0.00000
     95       7.2155      0.00000
     96       7.2875      0.00000
     97       7.3125      0.00000

 k-point     4 :       0.5000    0.5000    0.0000
  band No.  band energies     occupation 
      1     -39.2898      1.00000
      2     -38.8984      1.00000
      3     -38.8775      1.00000
      4     -38.8548      1.00000
      5     -38.8201      1.00000
      6     -38.7797      1.00000
      7     -38.7771      1.00000
      8     -38.5307      1.00000
      9     -19.4130      1.00000
     10     -19.3111      1.00000
     11     -19.2792      1.00000
     12     -19.1304      1.00000
     13     -19.0969      1.00000
     14     -19.0434      1.00000
     15     -18.9950      1.00000
     16     -18.9802      1.00000
     17     -18.9717      1.00000
     18     -18.9157      1.00000
     19     -18.9007      1.00000
     20     -18.8664      1.00000
     21     -18.8336      1.00000
     22     -18.8076      1.00000
     23     -18.8004      1.00000
     24     -18.7815      1.00000
     25     -18.7636      1.00000
     26     -18.7429      1.00000
     27     -18.7400      1.00000
     28     -18.7216      1.00000
     29     -18.7148      1.00000
     30     -18.5740      1.00000
     31     -18.5228      1.00000
     32     -18.5015      1.00000
     33      -9.8033      1.00000
     34      -9.5086      1.00000
     35      -9.5063      1.00000
     36      -9.4681      1.00000
     37      -9.4348      1.00000
     38      -9.4282      1.00000
     39      -9.1515      1.00000
     40      -5.1138      1.00000
     41      -5.0896      1.00000
     42      -5.0185      1.00000
     43      -4.8802      1.00000
     44      -0.5412      1.00000
     45      -0.4894      1.00000
     46      -0.4774      1.00000
     47      -0.4506      1.00000
     48      -0.4347      1.00000
     49      -0.3488      1.00000
     50      -0.3412      1.00000
     51      -0.2514      1.00000
     52      -0.1106      1.00000
     53      -0.0737      1.00000
     54      -0.0242      1.00000
     55       0.0777      1.00000
     56       0.1052      1.00000
     57       0.2533      1.00000
     58       0.5068      1.00000
     59       0.8162      1.00000
     60       1.0646      1.00000
     61       1.0969      1.00000
     62       1.1060      1.00000
     63       1.1437      1.00000
     64       1.2043      1.00000
     65       1.3935      1.00000
     66       1.5307      1.00000
     67       1.6929      1.00000
     68       1.7666      1.00000
     69       1.9518      1.00000
     70       2.0302      1.00000
     71       2.0894      1.00000
     72       2.1954      1.00000
     73       2.2199      1.00000
     74       2.3050      1.00000
     75       2.3461      1.00000
     76       2.4666      1.00000
     77       4.0396      0.00023
     78       4.1286      0.00002
     79       4.1335      0.00002
     80       4.2620      0.00000
     81       4.8791      0.00000
     82       5.1008      0.00000
     83       5.3729      0.00000
     84       5.5087      0.00000
     85       5.6237      0.00000
     86       5.9744      0.00000
     87       6.2512      0.00000
     88       6.4404      0.00000
     89       6.5530      0.00000
     90       6.7334      0.00000
     91       6.9199      0.00000
     92       6.9527      0.00000
     93       7.0123      0.00000
     94       7.0861      0.00000
     95       7.1290      0.00000
     96       7.2964      0.00000
     97       7.3462      0.00000

 k-point     5 :       0.0000    0.0000    0.5000
  band No.  band energies     occupation 
[...]
  0.000  -0.000  -0.004   0.000   0.273   0.003  -0.001  -0.270  -0.043  -0.001   0.004   0.009  -0.000   0.023   0.001  -0.002
 -0.000  -0.000  -0.122  -0.001   0.009   0.124   0.002  -0.009  -0.005   0.032   0.001   0.004  -0.025   0.003  -0.019  -0.001
 -0.004   0.027  -0.001   0.181   0.003  -0.000  -0.181  -0.002   0.003   0.004  -0.036  -0.002   0.002  -0.002  -0.002   0.018
  0.001  -0.003   0.010  -0.014  -0.119  -0.010   0.012   0.121  -0.025   0.005  -0.001   0.028  -0.003   0.013  -0.003   0.001
 -0.000  -0.003   0.260  -0.004  -0.014  -0.260   0.004   0.013  -0.000   0.007   0.001  -0.005  -0.050   0.000  -0.004  -0.000
  0.000  -0.001   0.006  -0.004  -0.001  -0.005   0.004   0.000   0.001   0.001   0.000  -0.003  -0.001  -0.001  -0.000  -0.000
 total augmentation occupancy for first ion, spin component:           2
  0.000  -0.000  -0.000  -0.000  -0.000   0.000   0.000   0.000   0.000  -0.000  -0.000  -0.000   0.000  -0.000   0.000   0.000
 -0.000  -0.000  -0.000  -0.000  -0.000   0.000   0.000   0.000   0.000  -0.000  -0.000  -0.000   0.000  -0.000   0.000   0.000
 -0.000  -0.000   0.000   0.000  -0.000  -0.000  -0.000   0.000  -0.000  -0.000  -0.000   0.000  -0.000   0.000   0.000   0.000
 -0.000  -0.000   0.000   0.000   0.000  -0.000  -0.000  -0.000  -0.000   0.000  -0.000   0.000  -0.000   0.000  -0.000   0.000
 -0.000  -0.000  -0.000   0.000  -0.000   0.000  -0.000   0.000  -0.000  -0.000   0.000  -0.000  -0.000   0.000   0.000  -0.000
  0.000   0.000  -0.000  -0.000   0.000   0.000   0.000  -0.000   0.000   0.000   0.000  -0.000   0.000  -0.000  -0.000  -0.000
  0.000   0.000  -0.000  -0.000  -0.000   0.000   0.000   0.000   0.000  -0.000   0.000  -0.000   0.000  -0.000   0.000  -0.000
  0.000   0.000   0.000  -0.000   0.000  -0.000   0.000  -0.000   0.000   0.000  -0.000   0.000   0.000  -0.000  -0.000   0.000
  0.000   0.000  -0.000  -0.000  -0.000   0.000   0.000   0.000  -0.000  -0.000  -0.000  -0.000   0.000   0.000   0.000   0.000
 -0.000  -0.000  -0.000   0.000  -0.000   0.000  -0.000   0.000  -0.000  -0.000  -0.000  -0.000  -0.000   0.000   0.000  -0.000
 -0.000  -0.000  -0.000  -0.000   0.000   0.000   0.000  -0.000  -0.000  -0.000   0.000   0.000   0.000   0.000  -0.000  -0.000
 -0.000  -0.000   0.000   0.000  -0.000  -0.000  -0.000   0.000  -0.000  -0.000   0.000  -0.000  -0.000   0.000  -0.000  -0.000
  0.000   0.000  -0.000  -0.000  -0.000   0.000   0.000   0.000   0.000  -0.000   0.000  -0.000   0.000  -0.000   0.000  -0.000
 -0.000  -0.000   0.000   0.000   0.000  -0.000  -0.000  -0.000   0.000   0.000   0.000   0.000  -0.000  -0.000  -0.000  -0.000
  0.000   0.000   0.000  -0.000   0.000  -0.000   0.000  -0.000   0.000   0.000  -0.000  -0.000   0.000  -0.000  -0.000   0.000
  0.000   0.000   0.000   0.000  -0.000  -0.000  -0.000   0.000   0.000  -0.000  -0.000  -0.000  -0.000  -0.000   0.000   0.000
  0.000   0.000   0.000  -0.000   0.000  -0.000   0.000  -0.000   0.000   0.000  -0.000   0.000  -0.000  -0.000  -0.000   0.000
 -0.000   0.000   0.000   0.000  -0.000  -0.000  -0.000   0.000  -0.000   0.000  -0.000   0.000  -0.000   0.000  -0.000   0.000
 -0.000  -0.000   0.000   0.000  -0.000  -0.000  -0.000   0.000  -0.000   0.000  -0.000  -0.000   0.000  -0.000  -0.000   0.000
 -0.000  -0.000  -0.000   0.000   0.000   0.000  -0.000  -0.000   0.000  -0.000  -0.000  -0.000   0.000  -0.000   0.000   0.000
  0.000   0.000  -0.000  -0.000  -0.000   0.000   0.000   0.000   0.000  -0.000  -0.000  -0.000  -0.000  -0.000   0.000   0.000
 -0.000  -0.000  -0.000   0.000  -0.000   0.000  -0.000   0.000  -0.000  -0.000   0.000  -0.000   0.000   0.000   0.000  -0.000
 -0.000  -0.000   0.000  -0.000  -0.000  -0.000   0.000   0.000   0.000   0.000  -0.000   0.000  -0.000  -0.000  -0.000   0.000
 -0.000  -0.000  -0.000   0.000   0.000   0.000  -0.000  -0.000  -0.000  -0.000  -0.000   0.000  -0.000   0.000   0.000   0.000
  0.000   0.000   0.000  -0.000   0.000  -0.000   0.000  -0.000  -0.000   0.000  -0.000   0.000   0.000   0.000  -0.000   0.000


------------------------ aborting loop because EDIFF is reached ----------------------------------------





 total charge     

# of ion       s       p       d       f       tot
--------------------------------------------------
    1        2.183   6.372   0.944   0.044   9.543
    2        2.183   6.370   0.943   0.043   9.539
    3        2.184   6.373   0.939   0.044   9.539
    4        2.183   6.369   0.937   0.043   9.533
    5        2.202   6.395   1.001   0.046   9.644
    6        2.205   6.317   1.000   0.038   9.560
    7        2.192   6.341   0.964   0.041   9.538
    8        2.182   6.333   0.927   0.039   9.481
    9        0.864   1.381   0.000   0.000   2.245
   10        0.864   1.380   0.000   0.000   2.244
   11        0.865   1.379   0.000   0.000   2.244
   12        0.864   1.361   0.000   0.000   2.225
   13        1.508   2.833   0.019   0.000   4.360
   14        1.507   2.833   0.019   0.000   4.359
   15        1.508   2.832   0.019   0.000   4.358
   16        1.508   2.832   0.019   0.000   4.359
   17        1.512   2.805   0.015   0.000   4.332
   18        1.514   2.837   0.026   0.000   4.377
   19        1.504   2.822   0.014   0.000   4.340
--------------------------------------------------
tot         31.531  76.166   7.785   0.337 115.819




 magnetization (x)

# of ion       s       p       d       f       tot
--------------------------------------------------
    1       -0.000  -0.000  -0.000  -0.000  -0.000
    2       -0.000  -0.000  -0.000  -0.000  -0.000
    3        0.000   0.000   0.000  -0.000   0.000
    4        0.000  -0.000  -0.000  -0.000  -0.000
    5       -0.000  -0.000  -0.000  -0.000  -0.000
    6        0.000   0.000   0.000   0.000   0.000
    7        0.000  -0.000   0.000   0.000   0.000
    8       -0.000   0.000   0.000   0.000  -0.000
    9       -0.000  -0.000   0.000   0.000  -0.000
   10        0.000   0.000   0.000   0.000   0.000
   11       -0.000  -0.000   0.000   0.000  -0.000
   12        0.000   0.000   0.000   0.000   0.000
   13       -0.000  -0.000  -0.000   0.000  -0.000
   14       -0.000  -0.000  -0.000   0.000  -0.000
   15       -0.000  -0.000   0.000   0.000  -0.000
   16        0.000   0.000   0.000   0.000   0.000
   17        0.000  -0.000   0.000   0.000  -0.000
   18       -0.000   0.000   0.000   0.000   0.000
   19       -0.000  -0.000   0.000   0.000  -0.000
--------------------------------------------------
tot         -0.000  -0.000  -0.000  -0.000  -0.000


    CHARGE:  cpu time    2.7416: real time    2.7592
    FORLOC:  cpu time    0.1455: real time    0.1462
    FORNL :  cpu time   19.5611: real time   19.6812
    STRESS:  cpu time   44.5159: real time   44.8039
    FORCOR:  cpu time    1.2299: real time    1.2365
    FORHAR:  cpu time    0.2025: real time    0.2036
    MIXING:  cpu time    0.0195: real time    0.0197
    OFIELD:  cpu time    0.0000: real time    0.0000

  FORCE on cell =-STRESS in cart. coord.  units (eV):
  Direction    XX          YY          ZZ          XY          YZ          ZX
  --------------------------------------------------------------------------------------
  Alpha Z   490.14769   490.14769   490.14769
  Ewald     498.27114   581.62911 -6619.11297   -35.11292    -1.20314    14.44669
  Hartree  3917.99755  3955.25669 -2694.49980   -17.01389     3.02086     6.00267
  E(xc)    -597.63682  -597.41390  -598.02379    -0.07739    -0.01106     0.01898
  Local   -6554.20485 -6674.34647  7195.89141    52.83937    -2.55068   -21.24622
  n-local   535.89008   538.07252   540.89303    -0.31509     0.40224    -0.13361
  augment  -143.42942  -143.67965  -142.47615    -0.06485    -0.11252    -0.09850
  Kinetic  1846.60814  1847.67720  1827.89601    -0.47974     0.47478     2.73658
  Fock        0.00000     0.00000     0.00000     0.00000     0.00000     0.00000
  -------------------------------------------------------------------------------------
  Total      -6.35649    -2.65680     0.71543    -0.22451     0.02049     1.72660
  in kB     -17.54595    -7.33363     1.97481    -0.61973     0.05656     4.76596
  external pressure =       -7.63 kB  Pullay stress =        0.00 kB


 VOLUME and BASIS-vectors are now :
 -----------------------------------------------------------------------------
  energy-cutoff  :      520.00
  volume of cell :      580.43
      direct lattice vectors                 reciprocal lattice vectors
     7.770644000  0.000004000  0.000000000     0.128689463 -0.000000038  0.000000012
     0.000002000  6.729576000  0.000000000    -0.000000076  0.148597772  0.000000013
    -0.000001000 -0.000001000 11.099577000     0.000000000  0.000000000  0.090093523

  length of vectors
     7.770644000  6.729576000 11.099577000     0.128689463  0.148597772  0.090093523


 FORCES acting on ions
    electron-ion (+dipol)            ewald-force                    non-local-force                 convergence-correction
 -----------------------------------------------------------------------------------------------
   0.890E+01 -.107E+01 -.352E+03   -.891E+01 0.121E+01 0.348E+03   0.300E-01 -.142E+00 0.446E+01   -.371E-03 0.298E-03 -.551E-04
   -.924E+01 0.433E+00 -.344E+03   0.918E+01 -.362E+00 0.339E+03   0.789E-01 -.782E-01 0.442E+01   0.231E-03 -.667E-04 0.151E-03
   -.398E+00 -.979E+01 -.366E+03   0.424E+00 0.888E+01 0.362E+03   -.107E-01 0.899E+00 0.419E+01   -.288E-03 0.739E-03 0.246E-03
   -.115E+01 0.102E+02 -.356E+03   0.108E+01 -.958E+01 0.351E+03   0.100E+00 -.588E+00 0.455E+01   0.335E-03 0.708E-03 0.173E-03
   -.230E+02 -.290E+02 0.417E+03   0.223E+02 0.286E+02 -.412E+03   0.628E+00 0.411E+00 -.424E+01   -.661E-03 0.522E-03 -.134E-02
   0.180E+02 -.633E+02 0.513E+03   -.177E+02 0.618E+02 -.504E+03   -.290E+00 0.151E+01 -.897E+01   0.777E-03 0.840E-03 -.124E-02
   -.339E+02 0.612E+02 0.463E+03   0.337E+02 -.595E+02 -.457E+03   0.274E+00 -.166E+01 -.659E+01   0.756E-03 0.123E-02 0.370E-03
   0.380E+02 0.322E+02 0.452E+03   -.376E+02 -.319E+02 -.446E+03   -.274E+00 -.349E+00 -.597E+01   -.396E-03 0.148E-03 -.613E-03
   -.984E+00 0.272E+01 0.169E+02   0.878E+00 -.267E+01 -.171E+02   0.144E+00 -.370E-01 0.227E+00   0.319E-04 0.221E-03 -.141E-03
   0.297E+01 -.823E+01 0.185E+02   -.287E+01 0.822E+01 -.187E+02   -.651E-01 0.254E-02 0.229E+00   0.666E-04 0.840E-04 -.160E-04
   -.363E+01 0.788E+01 0.166E+02   0.359E+01 -.773E+01 -.167E+02   0.726E-01 -.151E+00 0.354E-01   0.885E-04 0.108E-03 -.232E-03
   0.296E+01 0.883E+00 0.451E+02   -.295E+01 -.931E+00 -.451E+02   0.259E-01 0.502E-01 -.263E-01   0.154E-03 0.288E-03 -.114E-03
   -.377E+01 -.331E+00 -.377E+03   0.376E+01 0.357E+00 0.379E+03   0.312E-01 -.262E-01 -.244E+01   -.125E-03 -.602E-04 0.408E-03
   0.322E+01 -.348E+01 -.389E+03   -.323E+01 0.346E+01 0.391E+03   0.167E-01 0.212E-01 -.236E+01   0.134E-03 -.643E-04 0.650E-03
   -.684E+01 0.332E+01 -.382E+03   0.685E+01 -.333E+01 0.384E+03   0.102E-01 0.132E-02 -.239E+01   0.909E-04 0.299E-04 0.288E-03
   0.689E+01 0.102E+01 -.378E+03   -.691E+01 -.103E+01 0.380E+03   0.306E-01 0.809E-02 -.242E+01   -.688E-04 0.260E-04 0.344E-03
   0.555E+01 0.395E+01 0.303E+03   -.552E+01 -.393E+01 -.305E+03   -.765E+00 0.155E-03 0.236E+01   -.121E-02 -.104E-02 -.598E-03
   -.115E+02 -.819E+01 0.364E+03   0.118E+02 0.842E+01 -.366E+03   -.137E-01 -.213E+00 0.213E+01   -.324E-03 -.392E-03 -.167E-03
   0.775E+01 0.896E-01 0.344E+03   -.784E+01 -.702E-01 -.347E+03   0.161E+00 -.825E-02 0.248E+01   0.138E-03 0.169E-03 -.129E-03
 -----------------------------------------------------------------------------------------------
   -.180E+00 0.348E+00 0.103E+02   -.355E-14 -.111E-13 -.455E-12   0.184E+00 -.354E+00 -.103E+02   -.639E-03 0.379E-02 -.202E-02


 POSITION                                       TOTAL-FORCE (eV/Angst)
 -----------------------------------------------------------------------------------
      7.75797      2.23853      1.32552         0.020686     -0.001002      0.002342
      3.90413      2.23293      1.31648         0.017753     -0.007510     -0.012109
      1.94306      5.55007      1.35607         0.014939     -0.006116     -0.002466
      5.83634      5.56756      1.32126         0.025849     -0.000985     -0.003217
      1.92553      1.09199      9.92400        -0.009685     -0.021631     -0.000874
      5.85782      1.01457      9.87636         0.057370      0.003420     -0.010178
      3.87072      4.51140      9.83767         0.057762      0.040180      0.030644
      0.06569      4.45175      9.78157         0.045529     -0.045142     -0.047987
      7.74696     -0.01558     11.06885         0.037492      0.008542     -0.002782
      3.93656     -0.03046     11.08014         0.031746     -0.010223      0.009746
      1.95471      3.38056     11.13046         0.032363     -0.005454     -0.005991
      5.84250      3.30050     11.01152         0.035038      0.002141     -0.005201
      1.94351      1.09782      3.44595         0.016061     -0.000011      0.005254
      5.82747      1.08976      3.47074         0.013629     -0.000840     -0.003098
      3.89338      4.45757      3.49089         0.013197     -0.003270     -0.004549
      7.76193      4.45955      3.49265         0.012286     -0.000525     -0.001515
      1.41595      2.52209      7.33841        -0.736449      0.021534      0.119740
      2.09560      5.83458      7.71509         0.238355      0.015411     -0.069560
      5.86904      5.56787      7.58362         0.076081      0.011482      0.001799
 -----------------------------------------------------------------------------------
    total drift:                                0.003547     -0.002047     -0.003768


--------------------------------------------------------------------------------------------------------



  FREE ENERGIE OF THE ION-ELECTRON SYSTEM (eV)
  ---------------------------------------------------
  free  energy   TOTEN  =      -116.16541925 eV

  energy  without entropy=     -116.08924968  energy(sigma->0) =     -116.12733446

 d Force =-0.8193429E-03[-0.820E-03,-0.818E-03]  d Energy =-0.8174250E-03-0.192E-05
 d Force =-0.2311027E+00[-0.231E+00,-0.231E+00]  d Ewald  =-0.2311018E+00-0.946E-06


--------------------------------------------------------------------------------------------------------


    POTLOK:  cpu time    1.3100: real time    1.3172


--------------------------------------------------------------------------------------------------------


 NEB: the previous image is higher in energy: F
 NEB: the next image is higher in energy    : T
 NEB: only next energy greater

 NEB: Tangent
 ----------------------------------------------
     -0.02605     -0.00077     -0.00232
     -0.02236      0.00851      0.01423
     -0.01871      0.00582      0.00265
     -0.03335     -0.00213      0.00354
      0.01138      0.02548      0.00305
     -0.07208     -0.00739      0.01354
     -0.07313     -0.05245     -0.04035
     -0.05527      0.05389      0.05868
     -0.04655     -0.01367      0.00410
     -0.04022      0.01281     -0.01356
     -0.04055      0.00593      0.00752
     -0.04451     -0.00324      0.00506
     -0.01933     -0.00099     -0.00630
     -0.01750     -0.00051      0.00369
     -0.01698      0.00236      0.00588
     -0.01608      0.00024      0.00167
      0.91776     -0.01166     -0.14151
     -0.28998     -0.00743      0.08338
     -0.09215     -0.01480     -0.00295

 NEB: forces: par spring, perp REAL, dneb     0.008714    0.019125    0.000000
 NEB: distance to prev, next image, angle between     0.560343    0.562086  163.464468
 NEB: projections on to tangent (spring, REAL)     0.008714   -0.805409

 stress matrix after NEB project (eV)
     -6.35649     -0.22451      1.72660
     -0.22451     -2.65680      0.02049
      1.72660      0.02049      0.71543
  FORCES: max atom, RMS     0.016748    0.004821
  FORCE total and by dimension    0.021016    0.012044
  Stress total and by dimension    7.351146    6.356491
 Quasi-Newton relaxation of ions (Broydens 2nd method)
  g(Force)  = 0.129E-03   g(Stress)= 0.000E+00

 retain information from N=  2 steps
 eigenvalues of (default step * inverse Hessian matrix)
  average eigenvalue of G=   7.2069
 eigenvalue spectrum of G is  7.2069  7.2069


--------------------------------------------------------------------------------------------------------


  
 reached required accuracy - stopping structural energy minimisation
     LOOP+:  cpu time  696.9288: real time  699.9658
    4ORBIT:  cpu time    0.0000: real time    0.0000



 total charge     

# of ion       s       p       d       f       tot
--------------------------------------------------
    1        2.183   6.372   0.944   0.044   9.543
    2        2.183   6.370   0.943   0.043   9.539
    3        2.184   6.373   0.939   0.044   9.539
    4        2.183   6.369   0.937   0.043   9.533
    5        2.202   6.395   1.001   0.046   9.644
    6        2.205   6.317   1.000   0.038   9.560
    7        2.192   6.341   0.964   0.041   9.538
    8        2.182   6.333   0.927   0.039   9.481
    9        0.864   1.381   0.000   0.000   2.245
   10        0.864   1.380   0.000   0.000   2.244
   11        0.865   1.379   0.000   0.000   2.244
   12        0.864   1.361   0.000   0.000   2.225
   13        1.508   2.833   0.019   0.000   4.360
   14        1.507   2.833   0.019   0.000   4.359
   15        1.508   2.832   0.019   0.000   4.358
   16        1.508   2.832   0.019   0.000   4.359
   17        1.512   2.805   0.015   0.000   4.332
   18        1.514   2.837   0.026   0.000   4.377
   19        1.504   2.822   0.014   0.000   4.340
--------------------------------------------------
tot         31.531  76.166   7.785   0.337 115.819




 magnetization (x)

# of ion       s       p       d       f       tot
--------------------------------------------------
    1       -0.000  -0.000  -0.000  -0.000  -0.000
    2       -0.000  -0.000  -0.000  -0.000  -0.000
    3        0.000   0.000   0.000  -0.000   0.000
    4        0.000  -0.000  -0.000  -0.000  -0.000
    5       -0.000  -0.000  -0.000  -0.000  -0.000
    6        0.000   0.000   0.000   0.000   0.000
    7        0.000  -0.000   0.000   0.000   0.000
    8       -0.000   0.000   0.000   0.000  -0.000
    9       -0.000  -0.000   0.000   0.000  -0.000
   10        0.000   0.000   0.000   0.000   0.000
   11       -0.000  -0.000   0.000   0.000  -0.000
   12        0.000   0.000   0.000   0.000   0.000
   13       -0.000  -0.000  -0.000   0.000  -0.000
   14       -0.000  -0.000  -0.000   0.000  -0.000
   15       -0.000  -0.000   0.000   0.000  -0.000
   16        0.000   0.000   0.000   0.000   0.000
   17        0.000  -0.000   0.000   0.000  -0.000
   18       -0.000   0.000   0.000   0.000   0.000
   19       -0.000  -0.000   0.000   0.000  -0.000
--------------------------------------------------
tot         -0.000  -0.000  -0.000  -0.000  -0.000



 total amount of memory used by VASP MPI-rank0   265336. kBytes
=======================================================================

   base      :      30000. kBytes
   nonlr-proj:       9757. kBytes
   fftplans  :      25286. kBytes
   grid      :      66476. kBytes
   one-center:        420. kBytes
   wavefun   :     133397. kBytes

  
  
 General timing and accounting informations for this job:
 ========================================================
  
                  Total CPU time used (sec):    25479.869
                            User time (sec):    24711.458
                          System time (sec):      768.410
                         Elapsed time (sec):    25596.713
  
                   Maximum memory used (kb):      477828.
                   Average memory used (kb):           0.
  
                          Minor page faults:       765342
                          Major page faults:            0
                 Voluntary context switches:         6738
