 vasp.5.4.4.18Apr17-6-g9f103f2a35 (build Feb  5 2022 00:56:52) complex           
 executed on             LinuxGNU date 2022.02.08  03:19:48
 running on   21 total cores
 each image running on    3 cores
 distrk:  each k-point on    3 cores,    1 groups
 distr:  one band on NCORES_PER_BAND=   3 cores,    1 groups


--------------------------------------------------------------------------------------------------------


 INCAR:
 POTCAR:    PAW_PBE Y_sv 25May2007                
 POTCAR:    PAW_PBE C 08Apr2002                   
 POTCAR:    PAW_PBE I 08Apr2002                   
 POTCAR:    PAW_PBE Y_sv 25May2007                
   VRHFIN =Y: 4s4p5s4d                                                          
   LEXCH  = PE                                                                  
   EATOM  =  1046.9140 eV,   76.9460 Ry                                         
                                                                                
   TITEL  = PAW_PBE Y_sv 25May2007                                              
   LULTRA =        F    use ultrasoft PP ?                                      
   IUNSCR =        1    unscreen: 0-lin 1-nonlin 2-no                           
   RPACOR =    2.200    partial core radius                                     
   POMASS =   88.906; ZVAL   =   11.000    mass and valenz                      
   RCORE  =    2.800    outmost cutoff radius                                   
   RWIGS  =    3.430; RWIGS  =    1.815    wigner-seitz radius (au A)           
   ENMAX  =  202.626; ENMIN  =  151.970 eV                                      
   RCLOC  =    2.212    cutoff for local pot                                    
   LCOR   =        T    correct aug charges                                     
   LPAW   =        T    paw PP                                                  
   EAUG   =  470.889                                                            
   DEXC   =    0.000                                                            
   RMAX   =    2.863    core radius for proj-oper                               
   RAUG   =    1.300    factor for augmentation sphere                          
   RDEP   =    2.926    radius for radial grids                                 
   RDEPT  =    2.280    core radius for aug-charge                              
                                                                                
   Atomic configuration                                                         
   11 entries                                                                   
     n  l   j            E        occ.                                          
     1  0  0.50    -16863.0720   2.0000                                         
     2  0  0.50     -2309.2881   2.0000                                         
     2  1  1.50     -2055.5536   6.0000                                         
     3  0  0.50      -367.1837   2.0000                                         
     3  1  1.50      -284.8912   6.0000                                         
     3  2  2.50      -149.4324  10.0000                                         
     4  0  0.50       -46.3345   2.0000                                         
     5  0  0.50        -3.6387   1.0000                                         
     4  1  1.50       -26.3769   6.0000                                         
     4  2  2.50        -1.6291   2.0000                                         
     4  3  2.50        -1.3606   0.0000                                         
   Description                                                                  
     l       E           TYP  RCUT    TYP  RCUT                                 
     0    -46.3344714     23  2.600                                             
     0     -3.6387002     23  2.700                                             
     1    -26.3769044     23  2.600                                             
     1    -27.7374870     23  2.600                                             
     2     -1.6291019     23  2.600                                             
     2      0.1354037     23  2.600                                             
     3     -1.3605826     23  2.800                                             
  local pseudopotential read in
  partial core-charges read in
  partial kinetic energy density read in
  atomic valenz-charges read in
  non local Contribution for L=           0  read in
    real space projection operators read in
  non local Contribution for L=           0  read in
    real space projection operators read in
  non local Contribution for L=           1  read in
    real space projection operators read in
  non local Contribution for L=           1  read in
    real space projection operators read in
  non local Contribution for L=           2  read in
    real space projection operators read in
  non local Contribution for L=           2  read in
    real space projection operators read in
  non local Contribution for L=           3  read in
    real space projection operators read in
    PAW grid and wavefunctions read in

   number of l-projection  operators is LMAX  =           7
   number of lm-projection operators is LMMAX =          25

 POTCAR:    PAW_PBE C 08Apr2002                   
   VRHFIN =C: s2p2                                                              
   LEXCH  = PE                                                                  
   EATOM  =   147.1560 eV,   10.8157 Ry                                         
                                                                                
   TITEL  = PAW_PBE C 08Apr2002                                                 
   LULTRA =        F    use ultrasoft PP ?                                      
   IUNSCR =        1    unscreen: 0-lin 1-nonlin 2-no                           
   RPACOR =    1.200    partial core radius                                     
   POMASS =   12.011; ZVAL   =    4.000    mass and valenz                      
   RCORE  =    1.500    outmost cutoff radius                                   
   RWIGS  =    1.630; RWIGS  =    0.863    wigner-seitz radius (au A)           
   ENMAX  =  400.000; ENMIN  =  300.000 eV                                      
   ICORE  =        2    local potential                                         
   LCOR   =        T    correct aug charges                                     
   LPAW   =        T    paw PP                                                  
   EAUG   =  644.873                                                            
   DEXC   =    0.000                                                            
   RMAX   =    1.529    core radius for proj-oper                               
   RAUG   =    1.300    factor for augmentation sphere                          
   RDEP   =    1.501    radius for radial grids                                 
   RDEPT  =    1.300    core radius for aug-charge                              
                                                                                
   Atomic configuration                                                         
    4 entries                                                                   
     n  l   j            E        occ.                                          
     1  0  0.50      -273.3789   2.0000                                         
     2  0  0.50       -13.7508   2.0000                                         
     2  1  0.50        -5.2854   2.0000                                         
     3  2  1.50        -5.4423   0.0000                                         
   Description                                                                  
     l       E           TYP  RCUT    TYP  RCUT                                 
     0    -13.7508458     23  1.200                                             
     0     -8.2022199     23  1.200                                             
     1     -5.2854383     23  1.500                                             
     1     34.0145650     23  1.500                                             
     2     -5.4423304      7  1.500                                             
  local pseudopotential read in
  partial core-charges read in
  partial kinetic energy density read in
  atomic valenz-charges read in
  non local Contribution for L=           0  read in
    real space projection operators read in
  non local Contribution for L=           0  read in
    real space projection operators read in
  non local Contribution for L=           1  read in
    real space projection operators read in
  non local Contribution for L=           1  read in
    real space projection operators read in
    PAW grid and wavefunctions read in

   number of l-projection  operators is LMAX  =           4
   number of lm-projection operators is LMMAX =           8

 POTCAR:    PAW_PBE I 08Apr2002                   
   VRHFIN =I : s2p5                                                             
   LEXCH  = PE                                                                  
   EATOM  =   315.8678 eV,   23.2156 Ry                                         
                                                                                
   TITEL  = PAW_PBE I 08Apr2002                                                 
   LULTRA =        F    use ultrasoft PP ?                                      
   IUNSCR =        1    unscreen: 0-lin 1-nonlin 2-no                           
   RPACOR =    2.200    partial core radius                                     
   POMASS =  126.904; ZVAL   =    7.000    mass and valenz                      
   RCORE  =    2.300    outmost cutoff radius                                   
   RWIGS  =    2.810; RWIGS  =    1.487    wigner-seitz radius (au A)           
   ENMAX  =  175.647; ENMIN  =  131.735 eV                                      
   ICORE  =        3    local potential                                         
   LCOR   =        T    correct aug charges                                     
   LPAW   =        T    paw PP                                                  
   EAUG   =  370.139                                                            
   DEXC   =    0.000                                                            
   RMAX   =    2.359    core radius for proj-oper                               
   RAUG   =    1.300    factor for augmentation sphere                          
   RDEP   =    2.392    radius for radial grids                                 
   RDEPT  =    2.170    core radius for aug-charge                              
                                                                                
   Atomic configuration                                                         
   13 entries                                                                   
     n  l   j            E        occ.                                          
     1  0  0.50    -32976.3739   2.0000                                         
     2  0  0.50     -5094.5933   2.0000                                         
     2  1  1.50     -4572.0131   6.0000                                         
     3  0  0.50     -1028.2813   2.0000                                         
     3  1  1.50      -859.0250   6.0000                                         
     3  2  2.50      -605.7620  10.0000                                         
     4  0  0.50      -180.5540   2.0000                                         
     4  1  1.50      -127.5306   6.0000                                         
     4  2  2.50       -50.2720  10.0000                                         
     5  0  0.50       -17.4058   2.0000                                         
     5  1  0.50        -7.0851   5.0000                                         
     5  2  1.50        -7.0750   0.0000                                         
     4  3  2.50        -7.0750   0.0000                                         
   Description                                                                  
     l       E           TYP  RCUT    TYP  RCUT                                 
     0    -17.4058016     23  2.300                                             
     0    -18.7663842     23  2.300                                             
     1     -7.0850686     23  2.300                                             
     1     -4.2150896     23  2.300                                             
     2     -7.0750295     23  2.300                                             
     3     -1.3605826     23  2.300                                             
  local pseudopotential read in
  partial core-charges read in
  partial kinetic energy density read in
  atomic valenz-charges read in
  non local Contribution for L=           0  read in
    real space projection operators read in
  non local Contribution for L=           0  read in
    real space projection operators read in
  non local Contribution for L=           1  read in
    real space projection operators read in
  non local Contribution for L=           1  read in
    real space projection operators read in
  non local Contribution for L=           2  read in
    real space projection operators read in
    PAW grid and wavefunctions read in

   number of l-projection  operators is LMAX  =           5
   number of lm-projection operators is LMMAX =          13

 Optimization of the real space projectors (new method)

 maximal supplied QI-value         = 13.42
 optimisation between [QCUT,QGAM] = [ 11.67, 23.35] = [ 38.16,152.62] Ry 
 Optimized for a Real-space Cutoff    1.68 Angstroem

   l    n(q)    QCUT    max X(q) W(low)/X(q) W(high)/X(q)  e(spline) 
   0     12    11.673    14.902    0.22E-04    0.24E-05    0.52E-07
   0     12    11.673     9.294    0.34E-04    0.58E-05    0.89E-07
   1     11    11.673    69.520    0.10E-04    0.47E-04    0.49E-06
   1     11    11.673    72.085    0.10E-04    0.48E-04    0.50E-06
   2     11    11.673    62.934    0.94E-04    0.14E-04    0.82E-06
   2     11    11.673    49.749    0.91E-04    0.13E-04    0.79E-06
   3     10    11.673     8.311    0.92E-04    0.21E-04    0.59E-06
 Optimization of the real space projectors (new method)

 maximal supplied QI-value         = 25.13
 optimisation between [QCUT,QGAM] = [ 11.56, 23.12] = [ 37.43,149.72] Ry 
 Optimized for a Real-space Cutoff    1.04 Angstroem

   l    n(q)    QCUT    max X(q) W(low)/X(q) W(high)/X(q)  e(spline) 
   0      7    11.561   115.676    0.20E-03    0.60E-03    0.21E-06
   0      7    11.561    87.132    0.20E-03    0.59E-03    0.21E-06
   1      7    11.561     4.429    0.23E-03    0.35E-03    0.15E-06
   1      7    11.561     2.733    0.18E-03    0.25E-03    0.12E-06
 Optimization of the real space projectors (new method)

 maximal supplied QI-value         = 16.25
 optimisation between [QCUT,QGAM] = [ 11.54, 23.24] = [ 37.28,151.24] Ry 
 Optimized for a Real-space Cutoff    1.40 Angstroem

   l    n(q)    QCUT    max X(q) W(low)/X(q) W(high)/X(q)  e(spline) 
   0     10    11.539   194.483    0.48E-04    0.89E-04    0.13E-06
   0     10    11.539   190.334    0.47E-04    0.86E-04    0.12E-06
   1      9    11.539   116.687    0.15E-03    0.73E-04    0.13E-06
   1      9    11.539    88.696    0.15E-03    0.72E-04    0.13E-06
   2      9    11.539     4.877    0.99E-05    0.58E-04    0.56E-07
  PAW_PBE Y_sv 25May2007                :
 energy of atom  1       EATOM=-1046.9140
 kinetic energy error for atom=    0.0008 (will be added to EATOM!!)
  PAW_PBE C 08Apr2002                   :
 energy of atom  2       EATOM= -147.1560
 kinetic energy error for atom=    0.0071 (will be added to EATOM!!)
  PAW_PBE I 08Apr2002                   :
 energy of atom  3       EATOM= -315.8678
 kinetic energy error for atom=    0.0009 (will be added to EATOM!!)


 POSCAR: Y8 C4 I7                                
  positions in direct lattice
  No initial velocities read in
 exchange correlation table for  LEXCH =        8
   RHO(1)=    0.500       N(1)  =     2000
   RHO(2)=  100.500       N(2)  =     4000

 VTST: version 3.2, (02/03/18)

 CHAIN: initializing optimizer
 
 OPT: Using VASP QUASI-newton optimizer
 CHAIN: Read ICHAIN            0
 CHAIN: Running the NEB
 NEB:          SPRING     -5.000000
 NEB:          LCLIMB      T
 NEB:     LTANGENTOLD      F
 NEB:           LDNEB      F
 NEB:        LDNEBORG      F
 NEB:        LNEBCELL      F
 NEB:          EFIRST      0.000000
 NEB:           ELAST      0.000000

 POSCAR: Y8 C4 I7                                
  positions in direct lattice
  No initial velocities read in

 POSCAR: Y8 C4 I7                                
  positions in direct lattice
  No initial velocities read in



--------------------------------------------------------------------------------------------------------


 ion  position               nearest neighbor table
   1  0.995  0.334  0.116-  11 2.60  12 2.60   9 2.61  14 3.12  16 3.12  13 3.13   5 3.39   8 3.43
                             6 3.49   2 3.86   4 3.86   3 3.87   4 3.89   3 3.90   2 3.91
   2  0.498  0.337  0.121-  10 2.61  12 2.62  11 2.62  15 3.09  13 3.10  14 3.10   5 3.39   6 3.40
                             7 3.43   4 3.86   1 3.86   3 3.87   4 3.91   1 3.91   3 3.92
   3  0.245  0.832  0.120-  11 2.62  10 2.64   9 2.66  16 3.08  13 3.08  15 3.10   5 3.34   8 3.39
                             7 3.43   4 3.87   2 3.87   1 3.87   4 3.90   1 3.90   2 3.92
   4  0.748  0.832  0.120-   9 2.60  10 2.62  12 2.64  15 3.08  16 3.10  14 3.11   8 3.38   7 3.43
                             6 3.46   2 3.86   1 3.86   3 3.87   1 3.89   3 3.90   2 3.91
   5  0.251  0.157  0.893-  10 2.48   9 2.55  11 2.58  17 3.03  18 3.21   3 3.34   1 3.39   2 3.39
                             6 3.73   8 3.78   7 3.80   7 3.94   8 4.03   6 4.04
   6  0.731  0.166  0.883-  10 2.48  12 2.56   9 2.63  19 3.10  17 3.38   2 3.40   4 3.46   1 3.49
                             5 3.73   7 3.81   7 3.84   8 3.87   8 4.02   5 4.04
   7  0.497  0.669  0.886-  12 2.55  11 2.58  10 2.59  18 3.16  19 3.19  17 3.30   4 3.43   2 3.43
                             3 3.43   5 3.80   6 3.81   6 3.84   8 3.88   8 3.89   5 3.94
   8  0.996  0.679  0.887-   9 2.48  12 2.58  11 2.60  18 3.08  19 3.14   4 3.38   3 3.39   1 3.43
                             5 3.78   6 3.87   7 3.88   7 3.89   6 4.02   5 4.03
   9  0.992  0.000  0.996-   8 2.48   5 2.55   4 2.60   1 2.61   6 2.63   3 2.66
  10  0.497  0.004  0.000-   5 2.48   6 2.48   7 2.59   2 2.61   4 2.62   3 2.64
  11  0.247  0.499  0.998-   7 2.58   5 2.58   1 2.60   8 2.60   3 2.62   2 2.62
  12  0.746  0.499  0.994-   7 2.55   6 2.56   8 2.58   1 2.60   2 2.62   4 2.64
  13  0.246  0.166  0.311-   3 3.08   2 3.10   1 3.13
  14  0.748  0.168  0.313-   2 3.10   4 3.11   1 3.12
  15  0.499  0.669  0.313-   4 3.08   2 3.09   3 3.10
  16  0.997  0.666  0.312-   3 3.08   4 3.10   1 3.12
  17  0.440  0.325  0.678-   5 3.03   7 3.30   6 3.38
  18  0.239  0.824  0.687-   8 3.08   7 3.16   5 3.21
  19  0.750  0.841  0.685-   6 3.10   8 3.14   7 3.19


IMPORTANT INFORMATION: All symmetrisations will be switched off!
NOSYMM: (Re-)initialisation of all symmetry stuff for point group C_1.




Automatic generation of k-mesh.
 generate k-points for:    2    2    2
Space group operators:
 irot       det(A)        alpha          n_x          n_y          n_z        tau_x        tau_y        tau_z
    1     1.000000     0.000000     1.000000     0.000000     0.000000     0.000000     0.000000     0.000000
 
 Subroutine IBZKPT returns following result:
 ===========================================
 
 Found      8 irreducible k-points:
 
 Following reciprocal coordinates:
            Coordinates               Weight
  0.000000  0.000000  0.000000      1.000000
  0.500000  0.000000  0.000000      1.000000
  0.000000  0.500000  0.000000      1.000000
  0.500000  0.500000  0.000000      1.000000
  0.000000  0.000000  0.500000      1.000000
  0.500000  0.000000  0.500000      1.000000
  0.000000  0.500000  0.500000      1.000000
  0.500000  0.500000  0.500000      1.000000
 
 Following cartesian coordinates:
            Coordinates               Weight
  0.000000  0.000000  0.000000      1.000000
  0.064345 -0.000000  0.000000      1.000000
 -0.000000  0.074299  0.000000      1.000000
  0.064345  0.074299  0.000000      1.000000
  0.000000  0.000000  0.045047      1.000000
  0.064345 -0.000000  0.045047      1.000000
 -0.000000  0.074299  0.045047      1.000000
  0.064345  0.074299  0.045047      1.000000
 


--------------------------------------------------------------------------------------------------------




 Dimension of arrays:
   k-points           NKPTS =      8   k-points in BZ     NKDIM =      8   number of bands    NBANDS=     97
   number of dos      NEDOS =    301   number of ions     NIONS =     19
   non local maximal  LDIM  =      7   non local SUM 2l+1 LMDIM =     25
   total plane-waves  NPLWV = 252000
   max r-space proj   IRMAX =   8612   max aug-charges    IRDMAX=  31495
   dimension x,y,z NGX =    60 NGY =   50 NGZ =   84
   dimension x,y,z NGXF=   120 NGYF=  100 NGZF=  168
   support grid    NGXF=   120 NGYF=  100 NGZF=  168
   ions per type =               8   4   7
   NGX,Y,Z   is equivalent  to a cutoff of  12.84, 12.35, 12.58 a.u.
   NGXF,Y,Z  is equivalent  to a cutoff of  25.67, 24.70, 25.16 a.u.

 SYSTEM =  unknown system                          
 POSCAR =  Y8 C4 I7                                

 Startparameter for this run:
   NWRITE =      2    write-flag & timer
   PREC   = accura    normal or accurate (medium, high low for compatibility)
   ISTART =      0    job   : 0-new  1-cont  2-samecut
   ICHARG =      1    charge: 1-file 2-atom 10-const
   ISPIN  =      2    spin polarized calculation?
   LNONCOLLINEAR =      F non collinear calculations
   LSORBIT =      F    spin-orbit coupling
   INIWAV =      1    electr: 0-lowe 1-rand  2-diag
   LASPH  =      F    aspherical Exc in radial PAW
   METAGGA=      F    non-selfconsistent MetaGGA calc.

 Electronic Relaxation 1
   ENCUT  =  520.0 eV  38.22 Ry    6.18 a.u.  14.45 12.51 20.64*2*pi/ulx,y,z
   ENINI  =  520.0     initial cutoff
   ENAUG  =  644.9 eV  augmentation charge cutoff
   NELM   =    200;   NELMIN=  4; NELMDL= -5     # of ELM steps 
   EDIFF  = 0.1E-04   stopping-criterion for ELM
   LREAL  =      T    real-space projection
   NLSPLINE    = F    spline interpolate recip. space projectors
   LCOMPAT=      F    compatible to vasp.4.4
   GGA_COMPAT  = T    GGA compatible to vasp.4.4-vasp.4.6
   LMAXPAW     = -100 max onsite density
   LMAXMIX     =    2 max onsite mixed and CHGCAR
   VOSKOWN=      0    Vosko Wilk Nusair interpolation
   ROPT   =   -0.00025  -0.00025  -0.00025
 Ionic relaxation
   EDIFFG = -.2E-01   stopping-criterion for IOM
   NSW    =     99    number of steps for IOM
   NBLOCK =      1;   KBLOCK =     99    inner block; outer block 
   IBRION =      1    ionic relax: 0-MD 1-quasi-New 2-CG
   NFREE  =      0    steps in history (QN), initial steepest desc. (CG)
   ISIF   =      2    stress and relaxation
   IWAVPR =     11    prediction:  0-non 1-charg 2-wave 3-comb
   ISYM   =      0    0-nonsym 1-usesym 2-fastsym
   LCORR  =      T    Harris-Foulkes like correction to forces

   POTIM  = 0.5000    time-step for ionic-motion
   TEIN   =    0.0    initial temperature
   TEBEG  =    0.0;   TEEND  =   0.0 temperature during run
   SMASS  =  -3.00    Nose mass-parameter (am)
   estimated Nose-frequenzy (Omega)   =  0.10E-29 period in steps =****** mass=  -0.138E-26a.u.
   SCALEE = 1.0000    scale energy and forces
   NPACO  =    256;   APACO  = 16.0  distance and # of slots for P.C.
   PSTRESS=    0.0 pullay stress

  Mass of Ions in am
   POMASS =  88.91 12.01126.90
  Ionic Valenz
   ZVAL   =  11.00  4.00  7.00
  Atomic Wigner-Seitz radii
   RWIGS  =  -1.00 -1.00 -1.00
  virtual crystal weights 
   VCA    =   1.00  1.00  1.00
   NELECT =     153.0000    total number of electrons
   NUPDOWN=      -1.0000    fix difference up-down

 DOS related values:
   EMIN   =  10.00;   EMAX   =-10.00  energy-range for DOS
   EFERMI =   0.00
   ISMEAR =     0;   SIGMA  =   0.20  broadening in eV -4-tet -1-fermi 0-gaus

 Electronic relaxation 2 (details)
   IALGO  =     38    algorithm
   LDIAG  =      T    sub-space diagonalisation (order eigenvalues)
   LSUBROT=      F    optimize rotation matrix (better conditioning)
   TURBO    =      0    0=normal 1=particle mesh
   IRESTART =      0    0=no restart 2=restart with 2 vectors
   NREBOOT  =      0    no. of reboots
   NMIN     =      0    reboot dimension
   EREF     =   0.00    reference energy to select bands
   IMIX   =      4    mixing-type and parameters
     AMIX     =   0.40;   BMIX     =  1.00
     AMIX_MAG =   1.60;   BMIX_MAG =  1.00
     AMIN     =   0.10
     WC   =   100.;   INIMIX=   1;  MIXPRE=   1;  MAXMIX= -45

 Intra band minimization:
   WEIMIN = 0.0010     energy-eigenvalue tresh-hold
   EBREAK =  0.26E-07  absolut break condition
   DEPER  =   0.30     relativ break condition  

   TIME   =   0.40     timestep for ELM

  volume/ion in A,a.u.               =      30.55       206.16
  Fermi-wavevector in a.u.,A,eV,Ry     =   1.049675  1.983598 14.991144  1.101818
  Thomas-Fermi vector in A             =   2.184647

 Write flags
   LWAVE        =      F    write WAVECAR
   LDOWNSAMPLE  =      F    k-point downsampling of WAVECAR
   LCHARG       =      T    write CHGCAR
   LVTOT        =      F    write LOCPOT, total local potential
   LVHAR        =      F    write LOCPOT, Hartree potential only
   LELF         =      F    write electronic localiz. function (ELF)
   LORBIT       =     11    0 simple, 1 ext, 2 COOP (PROOUT), +10 PAW based schemes


 Dipole corrections
   LMONO  =      F    monopole corrections only (constant potential shift)
   LDIPOL =      F    correct potential (dipole corrections)
   IDIPOL =      0    1-x, 2-y, 3-z, 4-all directions 
   EPSILON=  1.0000000 bulk dielectric constant

 Exchange correlation treatment:
   GGA     =    --    GGA type
   LEXCH   =     8    internal setting for exchange type
   VOSKOWN=      0    Vosko Wilk Nusair interpolation
   LHFCALC =     F    Hartree Fock is set to
   LHFONE  =     F    Hartree Fock one center treatment
   AEXX    =    0.0000 exact exchange contribution

 Linear response parameters
   LEPSILON=     F    determine dielectric tensor
   LRPA    =     F    only Hartree local field effects (RPA)
   LNABLA  =     F    use nabla operator in PAW spheres
   LVEL    =     F    velocity operator in full k-point grid
   LINTERFAST=   F  fast interpolation
   KINTER  =     0    interpolate to denser k-point grid
   CSHIFT  =0.1000    complex shift for real part using Kramers Kronig
   OMEGAMAX=  -1.0    maximum frequency
   DEG_THRESHOLD= 0.2000000E-02 threshold for treating states as degnerate
   RTIME   =   -0.100 relaxation time in fs
  (WPLASMAI=    0.000 imaginary part of plasma frequency in eV, 0.658/RTIME)
   DFIELD  = 0.0000000 0.0000000 0.0000000 field for delta impulse in time

 Orbital magnetization related:
   ORBITALMAG=     F  switch on orbital magnetization
   LCHIMAG   =     F  perturbation theory with respect to B field
   DQ        =  0.001000  dq finite difference perturbation B field
   LLRAUG    =     F  two centre corrections for induced B field



--------------------------------------------------------------------------------------------------------


 quasi-Newton-method for relaxation of ions
 charge density and potential will be updated during run
 spin polarized calculation
 Variant of blocked Davidson
 Davidson routine will perform the subspace rotation
 perform sub-space diagonalisation
    after iterative eigenvector-optimisation
 modified Broyden-mixing scheme, WC =      100.0
 initial mixing is a Kerker type mixing with AMIX =  0.4000 and BMIX =      1.0000
 Hartree-type preconditioning will be used
 using additional bands           20
 real space projection scheme for non local part
 use partial core corrections
 calculate Harris-corrections to forces   (improved forces if not selfconsistent)
 use gradient corrections 
 use of overlap-Matrix (Vanderbilt PP)
 Gauss-broadening in eV      SIGMA  =   0.20


--------------------------------------------------------------------------------------------------------


  energy-cutoff  :      520.00
  volume of cell :      580.43
      direct lattice vectors                 reciprocal lattice vectors
     7.770644000  0.000004000  0.000000000     0.128689463 -0.000000038  0.000000012
     0.000002000  6.729576000  0.000000000    -0.000000076  0.148597772  0.000000013
    -0.000001000 -0.000001000 11.099577000     0.000000000  0.000000000  0.090093523

  length of vectors
     7.770644000  6.729576000 11.099577000     0.128689463  0.148597772  0.090093523



 k-points in units of 2pi/SCALE and weight: read from INCAR                         
   0.00000000  0.00000000  0.00000000       0.125
   0.06434473 -0.00000002  0.00000001       0.125
  -0.00000004  0.07429889  0.00000001       0.125
   0.06434469  0.07429887  0.00000001       0.125
   0.00000000  0.00000000  0.04504676       0.125
   0.06434473 -0.00000002  0.04504677       0.125
  -0.00000004  0.07429889  0.04504677       0.125
   0.06434469  0.07429887  0.04504677       0.125

 k-points in reciprocal lattice and weights: read from INCAR                         
   0.00000000  0.00000000  0.00000000       0.125
   0.50000000  0.00000000  0.00000000       0.125
   0.00000000  0.50000000  0.00000000       0.125
   0.50000000  0.50000000  0.00000000       0.125
   0.00000000  0.00000000  0.50000000       0.125
   0.50000000  0.00000000  0.50000000       0.125
   0.00000000  0.50000000  0.50000000       0.125
   0.50000000  0.50000000  0.50000000       0.125

 position of ions in fractional coordinates (direct lattice) 
   0.99465200  0.33438000  0.11555800
   0.49827100  0.33658900  0.12051600
   0.24541800  0.83184000  0.12045800
   0.74758200  0.83215300  0.11974700
   0.25126500  0.15699900  0.89312500
   0.73104500  0.16597500  0.88294000
   0.49675700  0.66908700  0.88585700
   0.99573800  0.67871900  0.88734600
   0.99171900  0.00010900  0.99641300
   0.49742900  0.00418900  0.00013300
   0.24651800  0.49903500  0.99806800
   0.74553600  0.49860200  0.99439800
   0.24571600  0.16600700  0.31059800
   0.74830500  0.16795700  0.31289200
   0.49923300  0.66918100  0.31267100
   0.99732800  0.66606300  0.31236500
   0.44022500  0.32548400  0.67778900
   0.23892800  0.82376600  0.68661600
   0.74966100  0.84053800  0.68530800

 position of ions in cartesian coordinates  (Angst):
   7.72908715  2.25023949  1.28264492
   3.87188711  2.26510313  1.33767662
   1.90705745  5.59793136  1.33703285
   5.80919513  5.60003973  1.32914105
   1.95249029  1.05653681  9.91330971
   5.68068989  1.11694342  9.80026052
   3.86012225  4.50267292  9.83263798
   7.73752599  4.56749419  9.84916525
   7.70629430  0.00073649 11.05976282
   3.86534368  0.02819218  0.00147624
   1.91560362  3.35829395 11.07813262
   5.79329485  3.35538204 11.03739717
   1.90937158  1.11715740  3.44750642
   5.81481178  1.13028208  3.47296885
   3.87936294  4.50330608  3.47051584
   7.74988186  4.48232526  3.46711937
   3.42083173  2.19037040  7.52317120
   1.85662539  5.54359617  7.62114716
   5.82534975  5.65646667  7.60662891



--------------------------------------------------------------------------------------------------------


 k-point  1 :   0.0000 0.0000 0.0000  plane waves:   15669
 k-point  2 :   0.5000 0.0000 0.0000  plane waves:   15660
 k-point  3 :   0.0000 0.5000 0.0000  plane waves:   15674
 k-point  4 :   0.5000 0.5000 0.0000  plane waves:   15604
 k-point  5 :   0.0000 0.0000 0.5000  plane waves:   15634
 k-point  6 :   0.5000 0.0000 0.5000  plane waves:   15620
 k-point  7 :   0.0000 0.5000 0.5000  plane waves:   15576
 k-point  8 :   0.5000 0.5000 0.5000  plane waves:   15592

 maximum and minimum number of plane-waves per node :      5250     5163

 maximum number of plane-waves:     15674
 maximum index in each direction: 
   IXMAX=   14   IYMAX=   12   IZMAX=   20
   IXMIN=  -14   IYMIN=  -13   IZMIN=  -21


 real space projection operators:
  total allocation   :      16949.78 KBytes
  max/ min on nodes  :       5675.64       5631.68


 parallel 3D FFT for wavefunctions:
    minimum data exchange during FFTs selected (reduces bandwidth)
 parallel 3D FFT for charge:
    minimum data exchange during FFTs selected (reduces bandwidth)


 total amount of memory used by VASP MPI-rank0   265333. kBytes
=======================================================================

   base      :      30000. kBytes
   nonlr-proj:       9754. kBytes
   fftplans  :      25286. kBytes
   grid      :      66476. kBytes
   one-center:        420. kBytes
   wavefun   :     133397. kBytes

     INWAV:  cpu time    0.0001: real time    0.0001
 Broyden mixing: mesh for mixing (old mesh)
   NGX = 29   NGY = 25   NGZ = 41
  (NGX  =120   NGY  =100   NGZ  =168)
  gives a total of  29725 points

 initial charge density was supplied:
 charge density of overlapping atoms calculated
 number of electron     153.0000000 magnetization      11.4000000
 keeping initial charge density in first step


--------------------------------------------------------------------------------------------------------


 Maximum index for non-local projection operator         2790
 Maximum index for augmentation-charges        10180 (set IRDMAX)


--------------------------------------------------------------------------------------------------------


 First call to EWALD:  gamma=   0.212
 Maximum number of real-space cells 3x 3x 2
 Maximum number of reciprocal cells 3x 2x 3

    FEWALD:  cpu time    0.0420: real time    0.0423


--------------------------------------- Iteration      1(   1)  ---------------------------------------


    POTLOK:  cpu time    4.8689: real time    4.9074
    SETDIJ:  cpu time    0.4534: real time    0.4570
     EDDAV:  cpu time  230.7398: real time  232.4835
       DOS:  cpu time    0.0060: real time    0.0060
    --------------------------------------------
      LOOP:  cpu time  236.0681: real time  237.8540

 eigenvalue-minimisations  :  3104
 total energy-change (2. order) : 0.1044545E+04  (-0.6850877E+04)
 number of electron     153.0000000 magnetization      11.4000000
 augmentation part      153.0000000 magnetization      11.4000000

 Free energy of the ion-electron system (eV)
  ---------------------------------------------------
  alpha Z        PSCENC =       490.14769152
  Ewald energy   TEWEN  =     -5494.57585594
  -Hartree energ DENC   =     -5191.04817274
  -exchange      EXHF   =         0.00000000
  -V(xc)+E(xc)   XCENC  =       295.74640347
  PAW double counting   =      8755.10086986    -8465.77839650
  entropy T*S    EENTRO =        -0.11001399
  eigenvalues    EBANDS =      -519.90739271
  atomic energy  EATOM  =     11174.96942390
  Solvation  Ediel_sol  =         0.00000000
  ---------------------------------------------------
  free energy    TOTEN  =      1044.54455688 eV

  energy without entropy =     1044.65457087  energy(sigma->0) =     1044.59956387


--------------------------------------------------------------------------------------------------------




--------------------------------------- Iteration      1(   2)  ---------------------------------------


     EDDAV:  cpu time  231.5934: real time  233.3433
       DOS:  cpu time    0.0049: real time    0.0049
    --------------------------------------------
      LOOP:  cpu time  231.5983: real time  233.3483

 eigenvalue-minimisations  :  3668
 total energy-change (2. order) :-0.1055684E+04  (-0.1012570E+04)
 number of electron     153.0000000 magnetization      11.4000000
 augmentation part      153.0000000 magnetization      11.4000000

 Free energy of the ion-electron system (eV)
  ---------------------------------------------------
  alpha Z        PSCENC =       490.14769152
  Ewald energy   TEWEN  =     -5494.57585594
  -Hartree energ DENC   =     -5191.04817274
  -exchange      EXHF   =         0.00000000
  -V(xc)+E(xc)   XCENC  =       295.74640347
  PAW double counting   =      8755.10086986    -8465.77839650
  entropy T*S    EENTRO =        -0.08394047
  eigenvalues    EBANDS =     -1575.61773108
  atomic energy  EATOM  =     11174.96942390
  Solvation  Ediel_sol  =         0.00000000
  ---------------------------------------------------
  free energy    TOTEN  =       -11.13970796 eV

  energy without entropy =      -11.05576750  energy(sigma->0) =      -11.09773773


--------------------------------------------------------------------------------------------------------




--------------------------------------- Iteration      1(   3)  ---------------------------------------


     EDDAV:  cpu time  281.4710: real time  283.5794
       DOS:  cpu time    0.0047: real time    0.0047
    --------------------------------------------
      LOOP:  cpu time  281.4757: real time  283.5841

 eigenvalue-minimisations  :  4284
 total energy-change (2. order) :-0.1150982E+03  (-0.1134347E+03)
 number of electron     153.0000000 magnetization      11.4000000
 augmentation part      153.0000000 magnetization      11.4000000

 Free energy of the ion-electron system (eV)
  ---------------------------------------------------
  alpha Z        PSCENC =       490.14769152
  Ewald energy   TEWEN  =     -5494.57585594
  -Hartree energ DENC   =     -5191.04817274
  -exchange      EXHF   =         0.00000000
  -V(xc)+E(xc)   XCENC  =       295.74640347
  PAW double counting   =      8755.10086986    -8465.77839650
  entropy T*S    EENTRO =        -0.05636438
  eigenvalues    EBANDS =     -1690.74352115
  atomic energy  EATOM  =     11174.96942390
  Solvation  Ediel_sol  =         0.00000000
  ---------------------------------------------------
  free energy    TOTEN  =      -126.23792195 eV

  energy without entropy =     -126.18155757  energy(sigma->0) =     -126.20973976


--------------------------------------------------------------------------------------------------------




--------------------------------------- Iteration      1(   4)  ---------------------------------------


     EDDAV:  cpu time  369.9398: real time  372.7124
       DOS:  cpu time    0.0042: real time    0.0042
    --------------------------------------------
      LOOP:  cpu time  369.9440: real time  372.7167

 eigenvalue-minimisations  :  5304
 total energy-change (2. order) :-0.1170368E+02  (-0.1166567E+02)
 number of electron     153.0000000 magnetization      11.4000000
 augmentation part      153.0000000 magnetization      11.4000000

 Free energy of the ion-electron system (eV)
  ---------------------------------------------------
  alpha Z        PSCENC =       490.14769152
  Ewald energy   TEWEN  =     -5494.57585594
  -Hartree energ DENC   =     -5191.04817274
  -exchange      EXHF   =         0.00000000
  -V(xc)+E(xc)   XCENC  =       295.74640347
  PAW double counting   =      8755.10086986    -8465.77839650
  entropy T*S    EENTRO =        -0.05715698
  eigenvalues    EBANDS =     -1702.44640511
  atomic energy  EATOM  =     11174.96942390
  Solvation  Ediel_sol  =         0.00000000
  ---------------------------------------------------
  free energy    TOTEN  =      -137.94159850 eV

  energy without entropy =     -137.88444152  energy(sigma->0) =     -137.91302001


--------------------------------------------------------------------------------------------------------




--------------------------------------- Iteration      1(   5)  ---------------------------------------


     EDDAV:  cpu time  273.1470: real time  275.1451
       DOS:  cpu time    0.0044: real time    0.0044
    CHARGE:  cpu time    8.4603: real time    8.5197
    MIXING:  cpu time    0.0446: real time    0.0449
    --------------------------------------------
      LOOP:  cpu time  281.6562: real time  283.7142

 eigenvalue-minimisations  :  4952
 total energy-change (2. order) :-0.8786588E+00  (-0.8782277E+00)
 number of electron     153.0000004 magnetization       7.1664905
 augmentation part        6.4263317 magnetization       6.7701183

 Broyden mixing:
  rms(total) = 0.78197E+01    rms(broyden)= 0.78196E+01
  rms(prec ) = 0.82568E+01
  weight for this iteration     100.00

 Free energy of the ion-electron system (eV)
  ---------------------------------------------------
  alpha Z        PSCENC =       490.14769152
  Ewald energy   TEWEN  =     -5494.57585594
  -Hartree energ DENC   =     -5191.04817274
  -exchange      EXHF   =         0.00000000
  -V(xc)+E(xc)   XCENC  =       295.74640347
  PAW double counting   =      8755.10086986    -8465.77839650
  entropy T*S    EENTRO =        -0.05718234
  eigenvalues    EBANDS =     -1703.32503850
  atomic energy  EATOM  =     11174.96942390
  Solvation  Ediel_sol  =         0.00000000
  ---------------------------------------------------
  free energy    TOTEN  =      -138.82025725 eV

  energy without entropy =     -138.76307492  energy(sigma->0) =     -138.79166608


--------------------------------------------------------------------------------------------------------




--------------------------------------- Iteration      1(   6)  ---------------------------------------


    POTLOK:  cpu time    3.0009: real time    3.0213
    SETDIJ:  cpu time    0.3008: real time    0.3027
     EDDAV:  cpu time  117.6214: real time  117.9054
       DOS:  cpu time    0.0034: real time    0.0034
    CHARGE:  cpu time    6.3209: real time    6.3346
    MIXING:  cpu time    0.1106: real time    0.1109
    --------------------------------------------
      LOOP:  cpu time  127.3580: real time  127.6782

 eigenvalue-minimisations  :  3934
 total energy-change (2. order) : 0.2335354E+02  (-0.1237658E+02)
 number of electron     153.0000003 magnetization       4.3415978
 augmentation part        6.6678075 magnetization       3.7934602

 Broyden mixing:
  rms(total) = 0.68485E+01    rms(broyden)= 0.68485E+01
  rms(prec ) = 0.68751E+01
  weight for this iteration     100.00

 eigenvalues of (default mixing * dielectric matrix)
  average eigenvalue GAMMA=   1.1265
  1.1265

 Free energy of the ion-electron system (eV)
  ---------------------------------------------------
  alpha Z        PSCENC =       490.14769152
  Ewald energy   TEWEN  =     -5494.57585594
  -Hartree energ DENC   =     -5193.75979327
  -exchange      EXHF   =         0.00000000
  -V(xc)+E(xc)   XCENC  =       296.38295062
  PAW double counting   =     10934.84793748   -10661.01326927
  entropy T*S    EENTRO =        -0.05271890
  eigenvalues    EBANDS =     -1662.41308739
  atomic energy  EATOM  =     11174.96942390
  Solvation  Ediel_sol  =         0.00000000
  ---------------------------------------------------
  free energy    TOTEN  =      -115.46672126 eV

  energy without entropy =     -115.41400235  energy(sigma->0) =     -115.44036181


--------------------------------------------------------------------------------------------------------




--------------------------------------- Iteration      1(   7)  ---------------------------------------


    POTLOK:  cpu time    1.6910: real time    1.6951
    SETDIJ:  cpu time    0.1735: real time    0.1739
     EDDAV:  cpu time  108.9784: real time  109.2247
       DOS:  cpu time    0.0034: real time    0.0034
    CHARGE:  cpu time    2.8802: real time    2.8866
    MIXING:  cpu time    0.0244: real time    0.0245
    --------------------------------------------
      LOOP:  cpu time  113.7509: real time  114.0081

 eigenvalue-minimisations  :  4200
 total energy-change (2. order) :-0.1294601E+01  (-0.2039945E+01)
 number of electron     153.0000003 magnetization       1.1081119
 augmentation part        5.3643405 magnetization       0.6727546

 Broyden mixing:
  rms(total) = 0.38325E+01    rms(broyden)= 0.38325E+01
  rms(prec ) = 0.38499E+01
  weight for this iteration     100.00

 eigenvalues of (default mixing * dielectric matrix)
  average eigenvalue GAMMA=   1.5781
  0.7316  2.4246

 Free energy of the ion-electron system (eV)
  ---------------------------------------------------
  alpha Z        PSCENC =       490.14769152
  Ewald energy   TEWEN  =     -5494.57585594
  -Hartree energ DENC   =     -5180.24322365
  -exchange      EXHF   =         0.00000000
  -V(xc)+E(xc)   XCENC  =       294.47399053
  PAW double counting   =     12927.82510132   -12662.81668963
  entropy T*S    EENTRO =        -0.04749405
  eigenvalues    EBANDS =     -1666.49426628
  atomic energy  EATOM  =     11174.96942390
  Solvation  Ediel_sol  =         0.00000000
  ---------------------------------------------------
  free energy    TOTEN  =      -116.76132226 eV

  energy without entropy =     -116.71382821  energy(sigma->0) =     -116.73757524


--------------------------------------------------------------------------------------------------------




--------------------------------------- Iteration      1(   8)  ---------------------------------------


    POTLOK:  cpu time    1.6678: real time    1.6719
    SETDIJ:  cpu time    0.1726: real time    0.1729
     EDDAV:  cpu time  105.9330: real time  106.1672
       DOS:  cpu time    0.0033: real time    0.0033
    CHARGE:  cpu time    5.5181: real time    5.5297
    MIXING:  cpu time    0.0382: real time    0.0382
    --------------------------------------------
      LOOP:  cpu time  113.3330: real time  113.5834

 eigenvalue-minimisations  :  4024
 total energy-change (2. order) :-0.3471401E+00  (-0.6332591E+00)
 number of electron     153.0000003 magnetization       0.7498632
 augmentation part        5.1815045 magnetization       0.3818501

 Broyden mixing:
  rms(total) = 0.11328E+01    rms(broyden)= 0.11327E+01
  rms(prec ) = 0.11842E+01
  weight for this iteration     100.00

 eigenvalues of (default mixing * dielectric matrix)
  average eigenvalue GAMMA=   1.3103
  2.3668  0.9390  0.6251

 Free energy of the ion-electron system (eV)
  ---------------------------------------------------
  alpha Z        PSCENC =       490.14769152
  Ewald energy   TEWEN  =     -5494.57585594
  -Hartree energ DENC   =     -5195.08732500
  -exchange      EXHF   =         0.00000000
  -V(xc)+E(xc)   XCENC  =       294.16515810
  PAW double counting   =     14919.95545715   -14648.94863953
  entropy T*S    EENTRO =        -0.05909488
  eigenvalues    EBANDS =     -1657.67527771
  atomic energy  EATOM  =     11174.96942390
  Solvation  Ediel_sol  =         0.00000000
  ---------------------------------------------------
  free energy    TOTEN  =      -117.10846239 eV

  energy without entropy =     -117.04936751  energy(sigma->0) =     -117.07891495


--------------------------------------------------------------------------------------------------------




--------------------------------------- Iteration      1(   9)  ---------------------------------------


    POTLOK:  cpu time    1.6265: real time    1.6307
    SETDIJ:  cpu time    0.1676: real time    0.1680
     EDDAV:  cpu time   88.0285: real time   88.2299
       DOS:  cpu time    0.0034: real time    0.0034
    CHARGE:  cpu time    4.3122: real time    4.3215
    MIXING:  cpu time    0.0580: real time    0.0582
    --------------------------------------------
      LOOP:  cpu time   94.1962: real time   94.4116

 eigenvalue-minimisations  :  4256
 total energy-change (2. order) : 0.2574464E+00  (-0.1437017E+00)
 number of electron     153.0000003 magnetization       0.5669476
 augmentation part        5.0171946 magnetization       0.3191502

 Broyden mixing:
  rms(total) = 0.23817E+00    rms(broyden)= 0.23816E+00
  rms(prec ) = 0.26491E+00
  weight for this iteration     100.00

 eigenvalues of (default mixing * dielectric matrix)
  average eigenvalue GAMMA=   1.2278
  2.3666  0.9657  0.9657  0.6131

 Free energy of the ion-electron system (eV)
  ---------------------------------------------------
  alpha Z        PSCENC =       490.14769152
  Ewald energy   TEWEN  =     -5494.57585594
  -Hartree energ DENC   =     -5201.97674098
  -exchange      EXHF   =         0.00000000
  -V(xc)+E(xc)   XCENC  =       294.52154041
  PAW double counting   =     15039.17659401   -14766.41719208
  entropy T*S    EENTRO =        -0.06803917
  eigenvalues    EBANDS =     -1652.62843766
  atomic energy  EATOM  =     11174.96942390
  Solvation  Ediel_sol  =         0.00000000
  ---------------------------------------------------
  free energy    TOTEN  =      -116.85101597 eV

  energy without entropy =     -116.78297681  energy(sigma->0) =     -116.81699639


--------------------------------------------------------------------------------------------------------




--------------------------------------- Iteration      1(  10)  ---------------------------------------


    POTLOK:  cpu time    1.5941: real time    1.5985
    SETDIJ:  cpu time    0.1493: real time    0.1497
     EDDAV:  cpu time  134.9529: real time  135.2401
       DOS:  cpu time    0.0033: real time    0.0034
    CHARGE:  cpu time    2.7552: real time    2.7613
    MIXING:  cpu time    0.0253: real time    0.0254
    --------------------------------------------
      LOOP:  cpu time  139.4802: real time  139.7783

 eigenvalue-minimisations  :  4200
 total energy-change (2. order) :-0.1487126E-01  (-0.3474420E-01)
 number of electron     153.0000003 magnetization       0.3789349
 augmentation part        4.9389753 magnetization       0.2000396

 Broyden mixing:
  rms(total) = 0.13538E+00    rms(broyden)= 0.13537E+00
  rms(prec ) = 0.15774E+00
  weight for this iteration     100.00

 eigenvalues of (default mixing * dielectric matrix)
  average eigenvalue GAMMA=   1.2460
  2.2655  1.6289  0.8538  0.8538  0.6281

 Free energy of the ion-electron system (eV)
  ---------------------------------------------------
  alpha Z        PSCENC =       490.14769152
  Ewald energy   TEWEN  =     -5494.57585594
  -Hartree energ DENC   =     -5209.19114466
  -exchange      EXHF   =         0.00000000
  -V(xc)+E(xc)   XCENC  =       294.85223885
  PAW double counting   =     15063.33003498   -14787.49178354
  entropy T*S    EENTRO =        -0.07245552
  eigenvalues    EBANDS =     -1648.83403683
  atomic energy  EATOM  =     11174.96942390
  Solvation  Ediel_sol  =         0.00000000
  ---------------------------------------------------
  free energy    TOTEN  =      -116.86588723 eV

  energy without entropy =     -116.79343171  energy(sigma->0) =     -116.82965947


--------------------------------------------------------------------------------------------------------




--------------------------------------- Iteration      1(  11)  ---------------------------------------


    POTLOK:  cpu time    1.6027: real time    1.6069
    SETDIJ:  cpu time    0.1494: real time    0.1497
     EDDAV:  cpu time  111.8052: real time  112.0542
       DOS:  cpu time    0.0034: real time    0.0034
    CHARGE:  cpu time    4.8258: real time    4.8360
    MIXING:  cpu time    0.0261: real time    0.0261
    --------------------------------------------
      LOOP:  cpu time  118.4126: real time  118.6764

 eigenvalue-minimisations  :  3984
 total energy-change (2. order) :-0.4720069E-02  (-0.9468001E-02)
 number of electron     153.0000003 magnetization       0.2273012
 augmentation part        4.9431070 magnetization       0.1231987

 Broyden mixing:
  rms(total) = 0.51870E-01    rms(broyden)= 0.51869E-01
  rms(prec ) = 0.65156E-01
  weight for this iteration     100.00

 eigenvalues of (default mixing * dielectric matrix)
  average eigenvalue GAMMA=   1.2641
  2.2250  2.2250  0.8899  0.8899  0.6143  0.7406

 Free energy of the ion-electron system (eV)
  ---------------------------------------------------
  alpha Z        PSCENC =       490.14769152
  Ewald energy   TEWEN  =     -5494.57585594
  -Hartree energ DENC   =     -5217.86578186
  -exchange      EXHF   =         0.00000000
  -V(xc)+E(xc)   XCENC  =       295.18170609
  PAW double counting   =     15027.56169378   -14747.05310105
  entropy T*S    EENTRO =        -0.07571095
  eigenvalues    EBANDS =     -1645.16067281
  atomic energy  EATOM  =     11174.96942390
  Solvation  Ediel_sol  =         0.00000000
  ---------------------------------------------------
  free energy    TOTEN  =      -116.87060730 eV

  energy without entropy =     -116.79489635  energy(sigma->0) =     -116.83275183


--------------------------------------------------------------------------------------------------------




--------------------------------------- Iteration      1(  12)  ---------------------------------------


    POTLOK:  cpu time    1.7180: real time    1.7222
    SETDIJ:  cpu time    0.1875: real time    0.1880
     EDDAV:  cpu time  116.7801: real time  117.0413
       DOS:  cpu time    0.0034: real time    0.0034
    CHARGE:  cpu time    4.2690: real time    4.2784
    MIXING:  cpu time    0.0411: real time    0.0412
    --------------------------------------------
      LOOP:  cpu time  122.9992: real time  123.2745

 eigenvalue-minimisations  :  4152
 total energy-change (2. order) :-0.2584536E-02  (-0.1109256E-02)
 number of electron     153.0000003 magnetization       0.1528010
 augmentation part        4.9624532 magnetization       0.0934216

 Broyden mixing:
  rms(total) = 0.33219E-01    rms(broyden)= 0.33219E-01
  rms(prec ) = 0.39684E-01
  weight for this iteration     100.00

 eigenvalues of (default mixing * dielectric matrix)
  average eigenvalue GAMMA=   1.2435
  2.3009  2.3009  1.2021  0.8372  0.8372  0.6130  0.6130

 Free energy of the ion-electron system (eV)
  ---------------------------------------------------
  alpha Z        PSCENC =       490.14769152
  Ewald energy   TEWEN  =     -5494.57585594
  -Hartree energ DENC   =     -5221.30669266
  -exchange      EXHF   =         0.00000000
  -V(xc)+E(xc)   XCENC  =       295.30906848
  PAW double counting   =     15053.48464098   -14771.59383218
  entropy T*S    EENTRO =        -0.07655581
  eigenvalues    EBANDS =     -1643.23108013
  atomic energy  EATOM  =     11174.96942390
  Solvation  Ediel_sol  =         0.00000000
  ---------------------------------------------------
  free energy    TOTEN  =      -116.87319184 eV

  energy without entropy =     -116.79663603  energy(sigma->0) =     -116.83491393


--------------------------------------------------------------------------------------------------------




--------------------------------------- Iteration      1(  13)  ---------------------------------------


    POTLOK:  cpu time    1.6052: real time    1.6095
    SETDIJ:  cpu time    0.1495: real time    0.1499
     EDDAV:  cpu time  131.5629: real time  131.8575
       DOS:  cpu time    0.0034: real time    0.0034
    CHARGE:  cpu time    6.6635: real time    6.6775
    MIXING:  cpu time    0.0265: real time    0.0266
    --------------------------------------------
      LOOP:  cpu time  140.0110: real time  140.3244

 eigenvalue-minimisations  :  4288
 total energy-change (2. order) :-0.1517046E-02  (-0.4590514E-03)
 number of electron     153.0000003 magnetization       0.0867577
 augmentation part        4.9709562 magnetization       0.0405586

 Broyden mixing:
  rms(total) = 0.16631E-01    rms(broyden)= 0.16630E-01
  rms(prec ) = 0.21569E-01
  weight for this iteration     100.00

 eigenvalues of (default mixing * dielectric matrix)
  average eigenvalue GAMMA=   1.2646
  2.3815  2.3815  1.2763  1.1682  0.8383  0.8383  0.6256  0.6070

 Free energy of the ion-electron system (eV)
  ---------------------------------------------------
  alpha Z        PSCENC =       490.14769152
  Ewald energy   TEWEN  =     -5494.57585594
  -Hartree energ DENC   =     -5222.33365280
  -exchange      EXHF   =         0.00000000
  -V(xc)+E(xc)   XCENC  =       295.34284878
  PAW double counting   =     15065.89214125   -14783.85527704
  entropy T*S    EENTRO =        -0.07676557
  eigenvalues    EBANDS =     -1642.38526300
  atomic energy  EATOM  =     11174.96942390
  Solvation  Ediel_sol  =         0.00000000
  ---------------------------------------------------
  free energy    TOTEN  =      -116.87470888 eV

  energy without entropy =     -116.79794331  energy(sigma->0) =     -116.83632610


--------------------------------------------------------------------------------------------------------




--------------------------------------- Iteration      1(  14)  ---------------------------------------


    POTLOK:  cpu time    1.6124: real time    1.6166
    SETDIJ:  cpu time    0.1732: real time    0.1736
     EDDAV:  cpu time   98.8294: real time   99.0597
       DOS:  cpu time    0.0034: real time    0.0034
    CHARGE:  cpu time    8.4654: real time    8.4830
    MIXING:  cpu time    0.0686: real time    0.0688
    --------------------------------------------
      LOOP:  cpu time  109.1525: real time  109.4053

 eigenvalue-minimisations  :  3696
 total energy-change (2. order) :-0.1528939E-02  (-0.1901822E-03)
 number of electron     153.0000003 magnetization       0.0264418
 augmentation part        4.9747855 magnetization      -0.0012220

 Broyden mixing:
  rms(total) = 0.79767E-02    rms(broyden)= 0.79766E-02
  rms(prec ) = 0.12071E-01
  weight for this iteration     100.00

 eigenvalues of (default mixing * dielectric matrix)
  average eigenvalue GAMMA=   1.3332
  2.5603  2.5603  1.8734  1.2935  0.8474  0.8474  0.7870  0.6147  0.6147

 Free energy of the ion-electron system (eV)
  ---------------------------------------------------
  alpha Z        PSCENC =       490.14769152
  Ewald energy   TEWEN  =     -5494.57585594
  -Hartree energ DENC   =     -5223.23311422
  -exchange      EXHF   =         0.00000000
  -V(xc)+E(xc)   XCENC  =       295.36929582
  PAW double counting   =     15065.94280768   -14783.84449336
  entropy T*S    EENTRO =        -0.07695539
  eigenvalues    EBANDS =     -1641.57503784
  atomic energy  EATOM  =     11174.96942390
  Solvation  Ediel_sol  =         0.00000000
  ---------------------------------------------------
  free energy    TOTEN  =      -116.87623782 eV

  energy without entropy =     -116.79928243  energy(sigma->0) =     -116.83776013


--------------------------------------------------------------------------------------------------------




--------------------------------------- Iteration      1(  15)  ---------------------------------------


    POTLOK:  cpu time    1.5645: real time    1.5687
    SETDIJ:  cpu time    0.1361: real time    0.1364
     EDDAV:  cpu time  142.7165: real time  143.0290
       DOS:  cpu time    0.0035: real time    0.0035
    CHARGE:  cpu time    9.7085: real time    9.7288
    MIXING:  cpu time    0.0454: real time    0.0455
    --------------------------------------------
      LOOP:  cpu time  154.1744: real time  154.5120

 eigenvalue-minimisations  :  3616
 total energy-change (2. order) :-0.6918190E-03  (-0.9386082E-04)
 number of electron     153.0000003 magnetization       0.0052395
 augmentation part        4.9782300 magnetization      -0.0039959

 Broyden mixing:
  rms(total) = 0.43644E-02    rms(broyden)= 0.43643E-02
  rms(prec ) = 0.60441E-02
  weight for this iteration     100.00

 eigenvalues of (default mixing * dielectric matrix)
  average eigenvalue GAMMA=   1.3486
  2.9218  2.2777  2.2777  1.4859  0.9466  0.8171  0.8171  0.6096  0.6660  0.6660

 Free energy of the ion-electron system (eV)
  ---------------------------------------------------
  alpha Z        PSCENC =       490.14769152
  Ewald energy   TEWEN  =     -5494.57585594
  -Hartree energ DENC   =     -5223.93726070
  -exchange      EXHF   =         0.00000000
  -V(xc)+E(xc)   XCENC  =       295.39063346
  PAW double counting   =     15071.21494129   -14789.16595094
  entropy T*S    EENTRO =        -0.07704340
  eigenvalues    EBANDS =     -1640.84350884
  atomic energy  EATOM  =     11174.96942390
  Solvation  Ediel_sol  =         0.00000000
  ---------------------------------------------------
  free energy    TOTEN  =      -116.87692964 eV

  energy without entropy =     -116.79988624  energy(sigma->0) =     -116.83840794


--------------------------------------------------------------------------------------------------------




--------------------------------------- Iteration      1(  16)  ---------------------------------------


    POTLOK:  cpu time    1.6269: real time    1.6310
    SETDIJ:  cpu time    0.3033: real time    0.3040
     EDDAV:  cpu time   85.6526: real time   85.8573
       DOS:  cpu time    0.0034: real time    0.0034
    CHARGE:  cpu time   10.7692: real time   10.7916
    MIXING:  cpu time    0.0415: real time    0.0416
    --------------------------------------------
      LOOP:  cpu time   98.3969: real time   98.6290

 eigenvalue-minimisations  :  3768
 total energy-change (2. order) :-0.1215943E-03  (-0.3385475E-04)
 number of electron     153.0000003 magnetization      -0.0002582
 augmentation part        4.9804600 magnetization      -0.0026461

 Broyden mixing:
  rms(total) = 0.30043E-02    rms(broyden)= 0.30041E-02
  rms(prec ) = 0.35056E-02
  weight for this iteration     100.00

 eigenvalues of (default mixing * dielectric matrix)
  average eigenvalue GAMMA=   1.3162
  3.1915  2.2871  2.2871  1.6049  1.0011  0.8129  0.8129  0.6712  0.6712  0.5991
  0.5386

 Free energy of the ion-electron system (eV)
  ---------------------------------------------------
  alpha Z        PSCENC =       490.14769152
  Ewald energy   TEWEN  =     -5494.57585594
  -Hartree energ DENC   =     -5224.18291652
  -exchange      EXHF   =         0.00000000
  -V(xc)+E(xc)   XCENC  =       295.39854850
  PAW double counting   =     15071.86320697   -14789.87210227
  entropy T*S    EENTRO =        -0.07705304
  eigenvalues    EBANDS =     -1640.54799437
  atomic energy  EATOM  =     11174.96942390
  Solvation  Ediel_sol  =         0.00000000
  ---------------------------------------------------
  free energy    TOTEN  =      -116.87705124 eV

  energy without entropy =     -116.79999820  energy(sigma->0) =     -116.83852472


--------------------------------------------------------------------------------------------------------




--------------------------------------- Iteration      1(  17)  ---------------------------------------


    POTLOK:  cpu time    1.5250: real time    1.5291
    SETDIJ:  cpu time    0.1483: real time    0.1487
     EDDAV:  cpu time   90.0433: real time   90.2473
       DOS:  cpu time    0.0033: real time    0.0033
    CHARGE:  cpu time    2.7349: real time    2.7412
    MIXING:  cpu time    0.0301: real time    0.0302
    --------------------------------------------
      LOOP:  cpu time   94.4849: real time   94.6998

 eigenvalue-minimisations  :  3072
 total energy-change (2. order) :-0.2081722E-04  (-0.3703271E-05)
 number of electron     153.0000003 magnetization      -0.0014840
 augmentation part        4.9804830 magnetization      -0.0015566

 Broyden mixing:
  rms(total) = 0.16421E-02    rms(broyden)= 0.16421E-02
  rms(prec ) = 0.19152E-02
  weight for this iteration     100.00

 eigenvalues of (default mixing * dielectric matrix)
  average eigenvalue GAMMA=   1.3480
  3.4722  2.4222  2.4222  1.7154  1.1481  0.8196  0.8196  0.7631  0.7631  0.6558
  0.5951  0.5800

 Free energy of the ion-electron system (eV)
  ---------------------------------------------------
  alpha Z        PSCENC =       490.14769152
  Ewald energy   TEWEN  =     -5494.57585594
  -Hartree energ DENC   =     -5224.18277420
  -exchange      EXHF   =         0.00000000
  -V(xc)+E(xc)   XCENC  =       295.39794042
  PAW double counting   =     15070.23726360   -14788.33213592
  entropy T*S    EENTRO =        -0.07705399
  eigenvalues    EBANDS =     -1640.46157145
  atomic energy  EATOM  =     11174.96942390
  Solvation  Ediel_sol  =         0.00000000
  ---------------------------------------------------
  free energy    TOTEN  =      -116.87707205 eV

  energy without entropy =     -116.80001806  energy(sigma->0) =     -116.83854506


--------------------------------------------------------------------------------------------------------




--------------------------------------- Iteration      1(  18)  ---------------------------------------


    POTLOK:  cpu time    1.5639: real time    1.5680
    SETDIJ:  cpu time    0.1503: real time    0.1506
     EDDAV:  cpu time   71.0168: real time   71.1778
       DOS:  cpu time    0.0032: real time    0.0032
    --------------------------------------------
      LOOP:  cpu time   72.7341: real time   72.8996

 eigenvalue-minimisations  :  2536
 total energy-change (2. order) :-0.2333214E-05  (-0.5062416E-06)
 number of electron     153.0000003 magnetization      -0.0014840
 augmentation part        4.9804830 magnetization      -0.0015566

 Free energy of the ion-electron system (eV)
  ---------------------------------------------------
  alpha Z        PSCENC =       490.14769152
  Ewald energy   TEWEN  =     -5494.57585594
  -Hartree energ DENC   =     -5224.16629226
  -exchange      EXHF   =         0.00000000
  -V(xc)+E(xc)   XCENC  =       295.39672694
  PAW double counting   =     15068.97898481   -14787.11731440
  entropy T*S    EENTRO =        -0.07705416
  eigenvalues    EBANDS =     -1640.43338480
  atomic energy  EATOM  =     11174.96942390
  Solvation  Ediel_sol  =         0.00000000
  ---------------------------------------------------
  free energy    TOTEN  =      -116.87707439 eV

  energy without entropy =     -116.80002023  energy(sigma->0) =     -116.83854731


--------------------------------------------------------------------------------------------------------




 average (electrostatic) potential at core
  the test charge radii are     1.2780  0.6991  1.1875
  (the norm of the test charge is              1.0000)
       1 -36.8554       2 -36.9017       3 -36.9842       4 -36.9501       5 -36.8650
       6 -37.1701       7 -36.9207       8 -36.9249       9 -49.9953      10 -49.9761
      11 -49.9494      12 -49.9913      13 -92.7005      14 -92.7050      15 -92.7612
      16 -92.7507      17 -92.8439      18 -92.8098      19 -92.9723



 E-fermi :   3.5300     XC(G=0):  -8.6096     alpha+bet : -9.1734


 spin component 1

 k-point     1 :       0.0000    0.0000    0.0000
  band No.  band energies     occupation 
      1     -39.0590      1.00000
      2     -38.8825      1.00000
      3     -38.8458      1.00000
      4     -38.8180      1.00000
      5     -38.8105      1.00000
      6     -38.7925      1.00000
      7     -38.7674      1.00000
      8     -38.7413      1.00000
      9     -19.2329      1.00000
     10     -19.1490      1.00000
     11     -19.1234      1.00000
     12     -19.1086      1.00000
     13     -19.0778      1.00000
     14     -19.0631      1.00000
     15     -19.0167      1.00000
     16     -18.9833      1.00000
     17     -18.9141      1.00000
     18     -18.8784      1.00000
     19     -18.8609      1.00000
     20     -18.8226      1.00000
     21     -18.8152      1.00000
     22     -18.7936      1.00000
     23     -18.7798      1.00000
     24     -18.7641      1.00000
     25     -18.7494      1.00000
     26     -18.7412      1.00000
     27     -18.7132      1.00000
     28     -18.7063      1.00000
     29     -18.6996      1.00000
     30     -18.6878      1.00000
     31     -18.6648      1.00000
     32     -18.6518      1.00000
     33      -9.9614      1.00000
     34      -9.8576      1.00000
     35      -9.4861      1.00000
     36      -9.3016      1.00000
     37      -9.2684      1.00000
     38      -9.2427      1.00000
     39      -9.2306      1.00000
     40      -5.3853      1.00000
     41      -4.9309      1.00000
     42      -4.8894      1.00000
     43      -4.8259      1.00000
     44      -1.2913      1.00000
     45      -0.9797      1.00000
     46      -0.8940      1.00000
     47      -0.7966      1.00000
     48      -0.7326      1.00000
     49      -0.6856      1.00000
     50      -0.4718      1.00000
     51      -0.0965      1.00000
     52       0.0323      1.00000
     53       0.1118      1.00000
     54       0.1455      1.00000
     55       0.2257      1.00000
     56       0.2896      1.00000
     57       0.3259      1.00000
     58       0.3532      1.00000
     59       0.3953      1.00000
     60       1.1954      1.00000
     61       1.2786      1.00000
     62       1.3688      1.00000
     63       1.4776      1.00000
     64       1.5739      1.00000
     65       1.6072      1.00000
     66       1.7732      1.00000
     67       1.8201      1.00000
     68       1.8448      1.00000
     69       1.9469      1.00000
     70       2.0368      1.00000
     71       2.3313      1.00000
     72       2.3818      1.00000
     73       2.4476      1.00000
     74       2.4836      1.00000
     75       2.6263      1.00000
     76       2.7066      1.00000
     77       3.4631      0.68213
     78       4.1929      0.00000
     79       4.7223      0.00000
     80       4.9583      0.00000
     81       5.0351      0.00000
     82       5.2199      0.00000
     83       5.2342      0.00000
     84       5.2449      0.00000
     85       5.6686      0.00000
     86       6.4084      0.00000
     87       6.5988      0.00000
     88       6.6647      0.00000
     89       6.6852      0.00000
     90       6.8536      0.00000
     91       6.8902      0.00000
     92       6.9273      0.00000
     93       7.0930      0.00000
     94       7.1415      0.00000
     95       7.2410      0.00000
     96       7.2631      0.00000
     97       7.3131      0.00000

 k-point     2 :       0.5000    0.0000    0.0000
  band No.  band energies     occupation 
      1     -39.0589      1.00000
      2     -38.8806      1.00000
      3     -38.8486      1.00000
      4     -38.8180      1.00000
      5     -38.8095      1.00000
      6     -38.7918      1.00000
      7     -38.7684      1.00000
      8     -38.7410      1.00000
      9     -19.2254      1.00000
     10     -19.1325      1.00000
     11     -19.1187      1.00000
     12     -19.0789      1.00000
     13     -19.0671      1.00000
     14     -19.0476      1.00000
     15     -18.9964      1.00000
     16     -18.9739      1.00000
     17     -18.9405      1.00000
     18     -18.9020      1.00000
     19     -18.8818      1.00000
     20     -18.8325      1.00000
     21     -18.8205      1.00000
     22     -18.7878      1.00000
     23     -18.7819      1.00000
     24     -18.7695      1.00000
     25     -18.7532      1.00000
     26     -18.7406      1.00000
     27     -18.7300      1.00000
     28     -18.7177      1.00000
     29     -18.6984      1.00000
     30     -18.6869      1.00000
     31     -18.6690      1.00000
     32     -18.6527      1.00000
     33      -9.7767      1.00000
     34      -9.7059      1.00000
     35      -9.6716      1.00000
     36      -9.6286      1.00000
     37      -9.2151      1.00000
     38      -9.1922      1.00000
     39      -9.1875      1.00000
     40      -5.2004      1.00000
     41      -5.1580      1.00000
     42      -4.8551      1.00000
     43      -4.8039      1.00000
     44      -0.8849      1.00000
     45      -0.8426      1.00000
     46      -0.8208      1.00000
     47      -0.5637      1.00000
     48      -0.4552      1.00000
     49      -0.2780      1.00000
     50      -0.1784      1.00000
     51      -0.1243      1.00000
     52      -0.0838      1.00000
     53      -0.0269      1.00000
     54       0.0052      1.00000
     55       0.1955      1.00000
     56       0.2643      1.00000
     57       0.3022      1.00000
     58       0.3698      1.00000
     59       0.4159      1.00000
     60       0.5624      1.00000
     61       0.6063      1.00000
     62       1.4810      1.00000
     63       1.5088      1.00000
     64       1.5394      1.00000
     65       1.5704      1.00000
     66       1.6993      1.00000
     67       1.7402      1.00000
     68       1.8221      1.00000
     69       1.8858      1.00000
     70       1.9144      1.00000
     71       1.9794      1.00000
     72       2.0472      1.00000
     73       2.2833      1.00000
     74       2.3357      1.00000
     75       2.4391      1.00000
     76       2.5543      1.00000
     77       4.4431      0.00000
     78       4.4724      0.00000
     79       4.5795      0.00000
     80       4.7208      0.00000
     81       5.1094      0.00000
     82       5.2548      0.00000
     83       5.3139      0.00000
     84       5.7124      0.00000
     85       5.7677      0.00000
     86       6.0024      0.00000
     87       6.0692      0.00000
     88       6.1636      0.00000
     89       6.4506      0.00000
     90       6.5076      0.00000
     91       6.6215      0.00000
     92       6.7462      0.00000
     93       6.8481      0.00000
     94       7.0840      0.00000
     95       7.1838      0.00000
     96       7.3441      0.00000
     97       7.4806      0.00000

 k-point     3 :       0.0000    0.5000    0.0000
  band No.  band energies     occupation 
      1     -39.0588      1.00000
      2     -38.8812      1.00000
      3     -38.8458      1.00000
      4     -38.8180      1.00000
      5     -38.8115      1.00000
      6     -38.7933      1.00000
      7     -38.7674      1.00000
      8     -38.7409      1.00000
      9     -19.2270      1.00000
     10     -19.1597      1.00000
     11     -19.1293      1.00000
     12     -19.1133      1.00000
     13     -19.0790      1.00000
     14     -19.0668      1.00000
     15     -19.0073      1.00000
     16     -18.9299      1.00000
     17     -18.8982      1.00000
     18     -18.8952      1.00000
     19     -18.8428      1.00000
     20     -18.8338      1.00000
     21     -18.8254      1.00000
     22     -18.8070      1.00000
     23     -18.8000      1.00000
     24     -18.7727      1.00000
     25     -18.7572      1.00000
     26     -18.7300      1.00000
     27     -18.7209      1.00000
     28     -18.7097      1.00000
     29     -18.6977      1.00000
     30     -18.6850      1.00000
     31     -18.6616      1.00000
     32     -18.6498      1.00000
     33      -9.7642      1.00000
     34      -9.6439      1.00000
     35      -9.5987      1.00000
     36      -9.4851      1.00000
     37      -9.3813      1.00000
     38      -9.2967      1.00000
     39      -9.2405      1.00000
     40      -5.1665      1.00000
     41      -5.0885      1.00000
     42      -4.9235      1.00000
     43      -4.8359      1.00000
     44      -1.3067      1.00000
     45      -1.2906      1.00000
     46      -1.1374      1.00000
     47      -0.5706      1.00000
     48      -0.5272      1.00000
     49      -0.4139      1.00000
     50      -0.2337      1.00000
     51      -0.1605      1.00000
     52      -0.0253      1.00000
     53       0.0555      1.00000
     54       0.1302      1.00000
     55       0.2156      1.00000
     56       0.2358      1.00000
     57       0.3474      1.00000
     58       0.7110      1.00000
     59       1.1448      1.00000
     60       1.2114      1.00000
     61       1.2681      1.00000
     62       1.3185      1.00000
     63       1.3823      1.00000
     64       1.5030      1.00000
     65       1.5141      1.00000
     66       1.6181      1.00000
     67       1.6393      1.00000
     68       1.8435      1.00000
     69       2.0098      1.00000
     70       2.0709      1.00000
     71       2.2813      1.00000
     72       2.3902      1.00000
     73       2.4306      1.00000
     74       2.4640      1.00000
     75       2.5073      1.00000
     76       2.5247      1.00000
     77       3.4506      0.71292
     78       3.4719      0.65949
     79       4.0459      0.00013
     80       4.2463      0.00000
     81       4.6389      0.00000
     82       5.7980      0.00000
     83       5.9449      0.00000
     84       5.9709      0.00000
     85       6.0969      0.00000
     86       6.3772      0.00000
     87       6.4619      0.00000
     88       6.7345      0.00000
     89       6.7769      0.00000
     90       6.8794      0.00000
     91       6.9149      0.00000
     92       7.0657      0.00000
     93       7.1382      0.00000
     94       7.1752      0.00000
     95       7.2200      0.00000
     96       7.3041      0.00000
     97       7.3442      0.00000

 k-point     4 :       0.5000    0.5000    0.0000
  band No.  band energies     occupation 
      1     -39.0587      1.00000
      2     -38.8795      1.00000
      3     -38.8480      1.00000
      4     -38.8181      1.00000
      5     -38.8108      1.00000
      6     -38.7926      1.00000
      7     -38.7687      1.00000
      8     -38.7405      1.00000
      9     -19.2226      1.00000
     10     -19.1354      1.00000
     11     -19.1117      1.00000
     12     -19.0883      1.00000
     13     -19.0564      1.00000
     14     -19.0428      1.00000
     15     -18.9871      1.00000
     16     -18.9618      1.00000
     17     -18.9486      1.00000
     18     -18.8901      1.00000
     19     -18.8848      1.00000
     20     -18.8743      1.00000
     21     -18.8144      1.00000
     22     -18.8071      1.00000
     23     -18.7873      1.00000
     24     -18.7632      1.00000
     25     -18.7422      1.00000
     26     -18.7333      1.00000
     27     -18.7246      1.00000
     28     -18.7138      1.00000
     29     -18.7072      1.00000
     30     -18.6918      1.00000
     31     -18.6726      1.00000
     32     -18.6457      1.00000
     33      -9.6488      1.00000
     34      -9.5194      1.00000
     35      -9.4997      1.00000
     36      -9.4786      1.00000
     37      -9.4642      1.00000
     38      -9.4304      1.00000
     39      -9.4082      1.00000
     40      -5.0681      1.00000
     41      -5.0144      1.00000
     42      -5.0025      1.00000
     43      -4.9227      1.00000
     44      -0.6667      1.00000
     45      -0.4762      1.00000
     46      -0.4599      1.00000
     47      -0.4387      1.00000
     48      -0.4349      1.00000
     49      -0.4134      1.00000
     50      -0.3652      1.00000
     51      -0.3165      1.00000
     52      -0.2976      1.00000
     53      -0.0974      1.00000
     54      -0.0090      1.00000
     55       0.0740      1.00000
     56       0.0920      1.00000
     57       0.1618      1.00000
     58       0.2634      1.00000
     59       1.0326      1.00000
     60       1.0898      1.00000
     61       1.1118      1.00000
     62       1.1291      1.00000
     63       1.1523      1.00000
     64       1.2444      1.00000
     65       1.4279      1.00000
     66       1.6516      1.00000
     67       1.6956      1.00000
     68       1.7272      1.00000
     69       2.0708      1.00000
     70       2.0934      1.00000
     71       2.1361      1.00000
     72       2.2153      1.00000
     73       2.2293      1.00000
     74       2.2666      1.00000
     75       2.3066      1.00000
     76       2.3297      1.00000
     77       4.0678      0.00007
     78       4.1383      0.00001
     79       4.1644      0.00000
     80       4.2808      0.00000
     81       4.9027      0.00000
     82       5.1781      0.00000
     83       5.4875      0.00000
     84       5.5341      0.00000
     85       5.6918      0.00000
     86       6.3195      0.00000
     87       6.3771      0.00000
     88       6.4564      0.00000
     89       6.6571      0.00000
     90       6.6999      0.00000
     91       6.9889      0.00000
     92       7.0021      0.00000
     93       7.0370      0.00000
     94       7.1326      0.00000
     95       7.2016      0.00000
     96       7.2518      0.00000
     97       7.3551      0.00000

 k-point     5 :       0.0000    0.0000    0.5000
  band No.  band energies     occupation 
      1     -39.0590      1.00000
[...]
  0.000  -0.000   0.002  -0.009   0.268  -0.002   0.009  -0.267  -0.055  -0.000   0.002   0.017  -0.000   0.029   0.000  -0.001
 -0.000   0.000  -0.100   0.003   0.001   0.103  -0.002  -0.001  -0.002   0.036   0.003   0.002  -0.029   0.001  -0.021  -0.002
 -0.004   0.032   0.001   0.185  -0.003  -0.001  -0.183   0.003   0.002   0.002  -0.038  -0.002   0.001  -0.001  -0.001   0.019
  0.000  -0.001   0.002   0.003  -0.105  -0.002  -0.004   0.108  -0.028   0.003  -0.000   0.030  -0.002   0.015  -0.002   0.000
  0.000  -0.001   0.263  -0.002  -0.000  -0.262   0.002  -0.000  -0.000   0.014  -0.002  -0.001  -0.059   0.000  -0.008   0.001
  0.000  -0.000   0.009  -0.001  -0.000  -0.008   0.001  -0.000  -0.002   0.001   0.000  -0.002   0.000   0.001  -0.001  -0.000
 total augmentation occupancy for first ion, spin component:           2
 -0.000  -0.000  -0.000   0.000   0.000   0.000  -0.000  -0.000  -0.000  -0.000  -0.000   0.000  -0.000   0.000   0.000   0.000
 -0.000   0.000  -0.000   0.000   0.000   0.000  -0.000  -0.000  -0.000  -0.000  -0.000   0.000   0.000  -0.000   0.000   0.000
 -0.000  -0.000  -0.000  -0.000   0.000   0.000   0.000  -0.000  -0.000  -0.000   0.000   0.000  -0.000   0.000   0.000  -0.000
  0.000   0.000  -0.000   0.000  -0.000   0.000  -0.000   0.000   0.000  -0.000   0.000  -0.000   0.000  -0.000   0.000  -0.000
  0.000   0.000   0.000  -0.000   0.000  -0.000   0.000  -0.000  -0.000  -0.000  -0.000   0.000   0.000   0.000   0.000  -0.000
  0.000   0.000   0.000   0.000  -0.000  -0.000  -0.000   0.000   0.000   0.000  -0.000  -0.000   0.000  -0.000  -0.000   0.000
 -0.000  -0.000   0.000  -0.000   0.000  -0.000   0.000  -0.000  -0.000   0.000  -0.000   0.000  -0.000   0.000  -0.000   0.000
 -0.000  -0.000  -0.000   0.000  -0.000   0.000  -0.000   0.000   0.000   0.000   0.000  -0.000  -0.000  -0.000  -0.000   0.000
 -0.000  -0.000  -0.000   0.000  -0.000   0.000  -0.000   0.000  -0.000  -0.000  -0.000   0.000   0.000   0.000   0.000   0.000
 -0.000  -0.000  -0.000  -0.000  -0.000   0.000   0.000   0.000  -0.000   0.000   0.000  -0.000  -0.000   0.000  -0.000  -0.000
 -0.000  -0.000   0.000   0.000  -0.000  -0.000  -0.000   0.000  -0.000   0.000  -0.000   0.000  -0.000   0.000   0.000   0.000
  0.000   0.000   0.000  -0.000   0.000  -0.000   0.000  -0.000   0.000  -0.000   0.000  -0.000  -0.000  -0.000   0.000  -0.000
 -0.000   0.000  -0.000   0.000   0.000   0.000  -0.000  -0.000   0.000  -0.000  -0.000  -0.000  -0.000  -0.000   0.000   0.000
  0.000  -0.000   0.000  -0.000   0.000  -0.000   0.000  -0.000   0.000   0.000   0.000  -0.000  -0.000  -0.000  -0.000  -0.000
  0.000   0.000   0.000   0.000   0.000  -0.000  -0.000  -0.000   0.000  -0.000   0.000   0.000   0.000  -0.000   0.000   0.000
  0.000   0.000  -0.000  -0.000  -0.000   0.000   0.000   0.000   0.000  -0.000   0.000  -0.000   0.000  -0.000   0.000  -0.000
 -0.000  -0.000  -0.000   0.000  -0.000   0.000  -0.000   0.000  -0.000   0.000  -0.000   0.000  -0.000   0.000  -0.000   0.000
  0.000  -0.000   0.000  -0.000   0.000  -0.000   0.000  -0.000  -0.000   0.000   0.000   0.000  -0.000   0.000  -0.000  -0.000
  0.000  -0.000   0.000  -0.000   0.000  -0.000   0.000  -0.000  -0.000   0.000   0.000   0.000  -0.000   0.000  -0.000   0.000
  0.000   0.000   0.000  -0.000   0.000  -0.000   0.000  -0.000  -0.000   0.000   0.000   0.000   0.000   0.000  -0.000   0.000
  0.000  -0.000   0.000   0.000  -0.000  -0.000  -0.000   0.000   0.000  -0.000   0.000  -0.000  -0.000  -0.000   0.000  -0.000
  0.000   0.000   0.000   0.000   0.000  -0.000  -0.000  -0.000  -0.000   0.000   0.000   0.000  -0.000   0.000  -0.000   0.000
 -0.000  -0.000   0.000   0.000  -0.000  -0.000  -0.000   0.000   0.000   0.000  -0.000  -0.000  -0.000  -0.000  -0.000  -0.000
  0.000  -0.000   0.000  -0.000  -0.000  -0.000   0.000   0.000  -0.000   0.000  -0.000  -0.000  -0.000   0.000   0.000   0.000
  0.000  -0.000   0.000  -0.000   0.000  -0.000   0.000  -0.000  -0.000  -0.000  -0.000   0.000  -0.000   0.000   0.000   0.000


------------------------ aborting loop because EDIFF is reached ----------------------------------------





 total charge     

# of ion       s       p       d       f       tot
--------------------------------------------------
    1        2.183   6.369   0.943   0.043   9.538
    2        2.183   6.373   0.942   0.044   9.542
    3        2.183   6.369   0.934   0.043   9.529
    4        2.183   6.370   0.936   0.043   9.531
    5        2.198   6.363   0.988   0.042   9.591
    6        2.195   6.331   0.974   0.039   9.538
    7        2.183   6.359   0.945   0.042   9.529
    8        2.197   6.351   0.987   0.042   9.577
    9        0.864   1.377   0.000   0.000   2.241
   10        0.865   1.386   0.000   0.000   2.250
   11        0.864   1.371   0.000   0.000   2.235
   12        0.864   1.368   0.000   0.000   2.232
   13        1.507   2.833   0.019   0.000   4.359
   14        1.507   2.833   0.019   0.000   4.359
   15        1.508   2.833   0.019   0.000   4.359
   16        1.507   2.833   0.019   0.000   4.359
   17        1.507   2.820   0.015   0.000   4.342
   18        1.507   2.829   0.017   0.000   4.353
   19        1.506   2.826   0.015   0.000   4.347
--------------------------------------------------
tot         31.512  76.195   7.770   0.336 115.812




 magnetization (x)

# of ion       s       p       d       f       tot
--------------------------------------------------
    1        0.000  -0.000  -0.000  -0.000  -0.000
    2       -0.000  -0.000  -0.000  -0.000  -0.000
    3       -0.000  -0.000  -0.000   0.000  -0.000
    4        0.000  -0.000  -0.000  -0.000  -0.000
    5        0.000  -0.000  -0.000  -0.000  -0.000
    6        0.000  -0.000  -0.000   0.000  -0.000
    7       -0.000  -0.000  -0.000  -0.000  -0.000
    8        0.000  -0.000  -0.000   0.000   0.000
    9        0.000   0.000   0.000   0.000   0.000
   10       -0.000  -0.000   0.000   0.000  -0.000
   11        0.000   0.000   0.000   0.000   0.000
   12        0.000   0.000   0.000   0.000   0.000
   13       -0.000  -0.000  -0.000   0.000  -0.000
   14       -0.000  -0.000  -0.000   0.000  -0.000
   15        0.000  -0.000  -0.000   0.000  -0.000
   16       -0.000  -0.000  -0.000   0.000  -0.000
   17        0.000  -0.000   0.000   0.000  -0.000
   18        0.000  -0.000   0.000   0.000  -0.000
   19        0.000  -0.000  -0.000   0.000  -0.000
--------------------------------------------------
tot          0.000  -0.000  -0.000   0.000  -0.000


    CHARGE:  cpu time    9.9911: real time   10.0117
    FORLOC:  cpu time    0.1005: real time    0.1008
    FORNL :  cpu time   35.0616: real time   35.1356
    STRESS:  cpu time   50.8109: real time   50.9258
    FORCOR:  cpu time    1.6316: real time    1.6354
    FORHAR:  cpu time    0.2367: real time    0.2373
    MIXING:  cpu time    0.0257: real time    0.0258
    OFIELD:  cpu time    0.0000: real time    0.0000

  FORCE on cell =-STRESS in cart. coord.  units (eV):
  Direction    XX          YY          ZZ          XY          YZ          ZX
  --------------------------------------------------------------------------------------
  Alpha Z   490.14769   490.14769   490.14769
  Ewald     580.74379   604.28416 -6683.06521    25.05808    10.04211   -18.54869
  Hartree  3977.35341  3992.51947 -2748.48166    11.40946     5.07464    -6.93870
  E(xc)    -597.53978  -597.46220  -598.02168     0.05861     0.02399    -0.02713
  Local   -6696.93710 -6734.36536  7313.82084   -36.97817   -15.67327    25.90583
  n-local   537.62236   537.05019   540.98840    -0.05498    -0.40580     0.39347
  augment  -143.45321  -143.04974  -142.12156     0.06934     0.04155     0.03921
  Kinetic  1847.21350  1844.58524  1826.91925     0.86702     1.53569    -2.50209
  Fock        0.00000     0.00000     0.00000     0.00000     0.00000     0.00000
  -------------------------------------------------------------------------------------
  Total      -4.84933    -6.29056     0.18607     0.42937     0.63892    -1.67811
  in kB     -13.38572   -17.36395     0.51362     1.18520     1.76362    -4.63213
  external pressure =      -10.08 kB  Pullay stress =        0.00 kB


 VOLUME and BASIS-vectors are now :
 -----------------------------------------------------------------------------
  energy-cutoff  :      520.00
  volume of cell :      580.43
      direct lattice vectors                 reciprocal lattice vectors
     7.770644000  0.000004000  0.000000000     0.128689463 -0.000000038  0.000000012
     0.000002000  6.729576000  0.000000000    -0.000000076  0.148597772  0.000000013
    -0.000001000 -0.000001000 11.099577000     0.000000000  0.000000000  0.090093523

  length of vectors
     7.770644000  6.729576000 11.099577000     0.128689463  0.148597772  0.090093523


 FORCES acting on ions
    electron-ion (+dipol)            ewald-force                    non-local-force                 convergence-correction
 -----------------------------------------------------------------------------------------------
   0.233E+01 0.861E+00 -.336E+03   -.232E+01 -.811E+00 0.332E+03   -.288E-01 -.446E-01 0.468E+01   -.115E-02 -.333E-03 0.582E-04
   -.155E+01 -.465E+01 -.369E+03   0.155E+01 0.465E+01 0.365E+03   -.278E-01 0.160E-01 0.453E+01   -.125E-03 -.110E-03 0.125E-03
   0.423E+01 -.168E+01 -.367E+03   -.431E+01 0.134E+01 0.363E+03   0.521E-01 0.356E+00 0.427E+01   -.109E-02 0.315E-03 0.916E-04
   -.277E+01 0.447E+01 -.363E+03   0.293E+01 -.422E+01 0.359E+03   -.187E+00 -.241E+00 0.446E+01   -.442E-03 -.197E-03 0.182E-04
   0.710E+02 -.365E+02 0.451E+03   -.693E+02 0.358E+02 -.445E+03   -.164E+01 0.688E+00 -.621E+01   -.908E-03 0.455E-03 0.347E-03
   -.706E+02 -.435E+02 0.481E+03   0.690E+02 0.426E+02 -.474E+03   0.155E+01 0.940E+00 -.746E+01   -.876E-03 0.344E-03 -.481E-04
   -.607E+01 0.892E+01 0.430E+03   0.608E+01 -.949E+01 -.425E+03   -.190E-01 0.585E+00 -.531E+01   -.710E-03 0.528E-03 0.416E-03
   0.510E+01 0.698E+02 0.469E+03   -.511E+01 -.678E+02 -.463E+03   -.197E-01 -.202E+01 -.660E+01   -.569E-03 0.147E-03 0.137E-03
   -.748E-01 -.164E+02 0.231E+02   0.618E-01 0.163E+02 -.232E+02   0.340E-02 0.923E-01 0.977E-01   -.228E-03 -.245E-04 0.178E-03
   0.184E+00 0.943E+01 0.750E+01   -.133E+00 -.933E+01 -.786E+01   -.863E-01 -.794E-01 0.353E+00   -.139E-03 0.117E-03 0.527E-04
   0.105E+02 0.465E+01 0.254E+02   -.104E+02 -.460E+01 -.254E+02   -.921E-01 -.586E-01 0.994E-02   -.213E-03 0.750E-04 -.881E-04
   -.109E+02 0.252E+01 0.319E+02   0.108E+02 -.255E+01 -.319E+02   0.371E-01 0.578E-01 0.850E-01   -.213E-03 0.420E-05 0.245E-03
   0.925E+01 -.387E+01 -.383E+03   -.927E+01 0.388E+01 0.385E+03   -.112E-01 -.719E-02 -.236E+01   -.802E-04 -.962E-04 -.876E-04
   -.856E+01 -.416E+01 -.386E+03   0.860E+01 0.416E+01 0.388E+03   -.597E-01 0.160E-01 -.235E+01   -.109E-03 -.185E-03 -.691E-04
   -.131E+01 0.135E+01 -.377E+03   0.134E+01 -.134E+01 0.380E+03   -.548E-01 0.507E-02 -.239E+01   -.122E-03 -.984E-04 -.155E-03
   0.166E+01 0.638E+01 -.386E+03   -.165E+01 -.642E+01 0.388E+03   -.262E-01 0.430E-01 -.236E+01   -.159E-03 -.211E-03 -.269E-04
   -.237E+01 0.581E+00 0.348E+03   0.218E+01 -.598E+00 -.350E+03   0.552E+00 -.877E-01 0.253E+01   0.182E-03 0.221E-03 0.592E-04
   0.239E+02 0.396E+00 0.356E+03   -.239E+02 -.330E+00 -.359E+03   -.330E-01 -.136E+00 0.238E+01   -.145E-03 0.185E-03 -.175E-03
   -.239E+02 0.121E+01 0.352E+03   0.239E+02 -.122E+01 -.355E+03   0.759E-02 0.205E-01 0.245E+01   -.194E-03 0.374E-04 0.784E-04
 -----------------------------------------------------------------------------------------------
   0.707E-01 -.138E+00 0.917E+01   0.284E-13 -.253E-13 0.000E+00   -.796E-01 0.139E+00 -.920E+01   -.729E-02 0.117E-02 0.116E-02


 POSITION                                       TOTAL-FORCE (eV/Angst)
 -----------------------------------------------------------------------------------
      7.66917      2.23887      1.27960        -0.021485      0.004932     -0.013308
      3.80020      2.24973      1.33372        -0.029703      0.006940      0.001835
      1.85265      5.57627      1.34081        -0.026102      0.014536     -0.007957
      5.73621      5.59563      1.32288        -0.021851      0.011605      0.001274
      1.90565      1.08299      9.88211        -0.012459     -0.000778     -0.018878
      5.63226      1.08343      9.83700        -0.046956      0.027607     -0.012406
      3.76896      4.45793      9.79476        -0.006504      0.007133      0.008464
      7.66632      4.57722      9.85124        -0.029379      0.019813      0.000609
      7.65378     -0.01839     11.06975        -0.008991      0.005464     -0.004318
      3.79441      0.01960     -0.02713        -0.034064      0.011807      0.000212
      1.84053      3.36522     11.07976        -0.021042     -0.006279     -0.021392
      5.72543      3.34140     11.03834        -0.023184      0.018819      0.012422
      1.85318      1.11083      3.45683        -0.026599      0.008218      0.003001
      5.75215      1.10844      3.46450        -0.023153      0.011292     -0.003106
      3.80863      4.47787      3.48550        -0.028188      0.010107     -0.003560
      7.68323      4.46376      3.47027        -0.022490      0.007240     -0.007653
      3.53410      2.29298      7.56255         0.361925     -0.104955      0.083323
      1.72489      5.68289      7.62499         0.013070     -0.070172     -0.024651
      5.73533      5.61641      7.60020         0.007156      0.016671      0.006090
 -----------------------------------------------------------------------------------
    total drift:                               -0.016117      0.002872     -0.024103


--------------------------------------------------------------------------------------------------------



  FREE ENERGIE OF THE ION-ELECTRON SYSTEM (eV)
  ---------------------------------------------------
  free  energy   TOTEN  =      -117.03238465 eV

  energy  without entropy=     -116.95543917  energy(sigma->0) =     -116.99391191

 d Force =-0.3304998E-03[-0.334E-03,-0.327E-03]  d Energy =-0.3349699E-03 0.447E-05
 d Force = 0.8245526E-01[ 0.824E-01, 0.825E-01]  d Ewald  = 0.8245526E-01 0.357E-08


--------------------------------------------------------------------------------------------------------


    POTLOK:  cpu time    1.7209: real time    1.7249


--------------------------------------------------------------------------------------------------------


 NEB: the previous image is higher in energy: T
 NEB: the next image is higher in energy    : F
 NEB: only prev energy greater

 NEB: Tangent
 ----------------------------------------------
     -0.06097      0.01100     -0.03321
     -0.07929      0.01670      0.00444
     -0.07390      0.03453     -0.01850
     -0.06003      0.02728      0.00188
     -0.03734      0.00032     -0.04524
     -0.11906      0.06764     -0.03013
     -0.02454      0.02164      0.02207
     -0.07728      0.04849      0.00015
     -0.02832      0.01408     -0.01000
     -0.08810      0.03116     -0.00093
     -0.06112     -0.01148     -0.05289
     -0.05992      0.04465      0.03098
     -0.07384      0.01651      0.00766
     -0.06313      0.02230     -0.00759
     -0.07543      0.02230     -0.00836
     -0.06434      0.00892     -0.01957
      0.87340     -0.25071      0.20275
      0.02645     -0.16410     -0.06028
      0.00911      0.03879      0.01678

 NEB: forces: par spring, perp REAL, dneb     0.015379    0.014880    0.000000
 NEB: distance to prev, next image, angle between     0.587828    0.584752  115.793592
 NEB: projections on to tangent (spring, REAL)    -0.015379    0.411599

 stress matrix after NEB project (eV)
     -4.84933      0.42937     -1.67811
      0.42937     -6.29056      0.63892
     -1.67811      0.63892      0.18607
  FORCES: max atom, RMS     0.011657    0.004909
  FORCE total and by dimension    0.021400    0.010997
  Stress total and by dimension    8.362956    6.290555
 Quasi-Newton relaxation of ions (Broydens 2nd method)
  g(Force)  = 0.129E-03   g(Stress)= 0.000E+00

 retain information from N=  2 steps
 eigenvalues of (default step * inverse Hessian matrix)
  average eigenvalue of G=   7.2069
 eigenvalue spectrum of G is  7.2069  7.2069


--------------------------------------------------------------------------------------------------------


  
 reached required accuracy - stopping structural energy minimisation
     LOOP+:  cpu time  682.1692: real time  685.1951
    4ORBIT:  cpu time    0.0000: real time    0.0000



 total charge     

# of ion       s       p       d       f       tot
--------------------------------------------------
    1        2.183   6.369   0.943   0.043   9.538
    2        2.183   6.373   0.942   0.044   9.542
    3        2.183   6.369   0.934   0.043   9.529
    4        2.183   6.370   0.936   0.043   9.531
    5        2.198   6.363   0.988   0.042   9.591
    6        2.195   6.331   0.974   0.039   9.538
    7        2.183   6.359   0.945   0.042   9.529
    8        2.197   6.351   0.987   0.042   9.577
    9        0.864   1.377   0.000   0.000   2.241
   10        0.865   1.386   0.000   0.000   2.250
   11        0.864   1.371   0.000   0.000   2.235
   12        0.864   1.368   0.000   0.000   2.232
   13        1.507   2.833   0.019   0.000   4.359
   14        1.507   2.833   0.019   0.000   4.359
   15        1.508   2.833   0.019   0.000   4.359
   16        1.507   2.833   0.019   0.000   4.359
   17        1.507   2.820   0.015   0.000   4.342
   18        1.507   2.829   0.017   0.000   4.353
   19        1.506   2.826   0.015   0.000   4.347
--------------------------------------------------
tot         31.512  76.195   7.770   0.336 115.812




 magnetization (x)

# of ion       s       p       d       f       tot
--------------------------------------------------
    1        0.000  -0.000  -0.000  -0.000  -0.000
    2       -0.000  -0.000  -0.000  -0.000  -0.000
    3       -0.000  -0.000  -0.000   0.000  -0.000
    4        0.000  -0.000  -0.000  -0.000  -0.000
    5        0.000  -0.000  -0.000  -0.000  -0.000
    6        0.000  -0.000  -0.000   0.000  -0.000
    7       -0.000  -0.000  -0.000  -0.000  -0.000
    8        0.000  -0.000  -0.000   0.000   0.000
    9        0.000   0.000   0.000   0.000   0.000
   10       -0.000  -0.000   0.000   0.000  -0.000
   11        0.000   0.000   0.000   0.000   0.000
   12        0.000   0.000   0.000   0.000   0.000
   13       -0.000  -0.000  -0.000   0.000  -0.000
   14       -0.000  -0.000  -0.000   0.000  -0.000
   15        0.000  -0.000  -0.000   0.000  -0.000
   16       -0.000  -0.000  -0.000   0.000  -0.000
   17        0.000  -0.000   0.000   0.000  -0.000
   18        0.000  -0.000   0.000   0.000  -0.000
   19        0.000  -0.000  -0.000   0.000  -0.000
--------------------------------------------------
tot          0.000  -0.000  -0.000   0.000  -0.000



 total amount of memory used by VASP MPI-rank0   265333. kBytes
=======================================================================

   base      :      30000. kBytes
   nonlr-proj:       9754. kBytes
   fftplans  :      25286. kBytes
   grid      :      66476. kBytes
   one-center:        420. kBytes
   wavefun   :     133397. kBytes

  
  
 General timing and accounting informations for this job:
 ========================================================
  
                  Total CPU time used (sec):    25475.617
                            User time (sec):    17902.071
                          System time (sec):     7573.546
                         Elapsed time (sec):    25600.824
  
                   Maximum memory used (kb):      489420.
                   Average memory used (kb):           0.
  
                          Minor page faults:       702370
                          Major page faults:            0
                 Voluntary context switches:        11223
