 vasp.5.4.4.18Apr17-6-g9f103f2a35 (build Feb  5 2022 00:56:52) complex           
 executed on             LinuxGNU date 2022.03.11  19:49:47
 running on    6 total cores
 distrk:  each k-point on    6 cores,    1 groups
 distr:  one band on NCORES_PER_BAND=   6 cores,    1 groups


--------------------------------------------------------------------------------------------------------


 INCAR:
 POTCAR:    PAW_PBE Fe 06Sep2000                  

 ----------------------------------------------------------------------------- 
|                                                                             |
|           W    W    AA    RRRRR   N    N  II  N    N   GGGG   !!!           |
|           W    W   A  A   R    R  NN   N  II  NN   N  G    G  !!!           |
|           W    W  A    A  R    R  N N  N  II  N N  N  G       !!!           |
|           W WW W  AAAAAA  RRRRR   N  N N  II  N  N N  G  GGG   !            |
|           WW  WW  A    A  R   R   N   NN  II  N   NN  G    G                |
|           W    W  A    A  R    R  N    N  II  N    N   GGGG   !!!           |
|                                                                             |
|      For optimal performance we recommend to set                            |
|        NCORE= 4 - approx SQRT( number of cores)                             |
|      NCORE specifies how many cores store one orbital (NPAR=cpu/NCORE).     |
|      This setting can  greatly improve the performance of VASP for DFT.     |
|      The default,   NCORE=1            might be grossly inefficient         |
|      on modern multi-core architectures or massively parallel machines.     |
|      Do your own testing !!!!                                               |
|      Unfortunately you need to use the default for GW and RPA calculations. |
|      (for HF NCORE is supported but not extensively tested yet)             |
|                                                                             |
 ----------------------------------------------------------------------------- 

 POTCAR:    PAW_PBE Fe 06Sep2000                  
   VRHFIN =Fe:  d7 s1                                                           
   LEXCH  = PE                                                                  
   EATOM  =   594.3153 eV,   43.6809 Ry                                         
                                                                                
   TITEL  = PAW_PBE Fe 06Sep2000                                                
   LULTRA =        F    use ultrasoft PP ?                                      
   IUNSCR =        1    unscreen: 0-lin 1-nonlin 2-no                           
   RPACOR =    2.000    partial core radius                                     
   POMASS =   55.847; ZVAL   =    8.000    mass and valenz                      
   RCORE  =    2.300    outmost cutoff radius                                   
   RWIGS  =    2.460; RWIGS  =    1.302    wigner-seitz radius (au A)           
   ENMAX  =  267.882; ENMIN  =  200.911 eV                                      
   RCLOC  =    1.701    cutoff for local pot                                    
   LCOR   =        T    correct aug charges                                     
   LPAW   =        T    paw PP                                                  
   EAUG   =  511.368                                                            
   DEXC   =    0.000                                                            
   RMAX   =    2.356    core radius for proj-oper                               
   RAUG   =    1.300    factor for augmentation sphere                          
   RDEP   =    2.442    radius for radial grids                                 
   RDEPT  =    1.890    core radius for aug-charge                              
                                                                                
   Atomic configuration                                                         
    9 entries                                                                   
     n  l   j            E        occ.                                          
     1  0  0.50     -6993.8440   2.0000                                         
     2  0  0.50      -814.6047   2.0000                                         
     2  1  1.50      -693.3689   6.0000                                         
     3  0  0.50       -89.4732   2.0000                                         
     3  1  1.50       -55.6373   6.0000                                         
     3  2  2.50        -3.8151   7.0000                                         
     4  0  0.50        -4.2551   1.0000                                         
     4  1  1.50        -3.4015   0.0000                                         
     4  3  2.50        -1.3606   0.0000                                         
   Description                                                                  
     l       E           TYP  RCUT    TYP  RCUT                                 
     2     -3.8151135     23  2.300                                             
     2     -5.1756961     23  2.300                                             
     0     -4.2550963     23  2.300                                             
     0      7.2035603     23  2.300                                             
     1     -2.7211652     23  2.300                                             
     1     18.4316424     23  2.300                                             
  local pseudopotential read in
  partial core-charges read in
  partial kinetic energy density read in
  atomic valenz-charges read in
  non local Contribution for L=           2  read in
    real space projection operators read in
  non local Contribution for L=           2  read in
    real space projection operators read in
  non local Contribution for L=           0  read in
    real space projection operators read in
  non local Contribution for L=           0  read in
    real space projection operators read in
  non local Contribution for L=           1  read in
    real space projection operators read in
  non local Contribution for L=           1  read in
    real space projection operators read in
    PAW grid and wavefunctions read in

   number of l-projection  operators is LMAX  =           6
   number of lm-projection operators is LMMAX =          18

  PAW_PBE Fe 06Sep2000                  :
 energy of atom  1       EATOM= -594.3153
 kinetic energy error for atom=    0.0034 (will be added to EATOM!!)


 POSCAR: Fe1                                     
  positions in direct lattice
  No initial velocities read in
 exchange correlation table for  LEXCH =        8
   RHO(1)=    0.500       N(1)  =     2000
   RHO(2)=  100.500       N(2)  =     4000

 VTST: version 3.2, (02/03/18)

 CHAIN: initializing optimizer
 
 OPT: Using VASP Dynamics algorithm
 CHAIN: Read ICHAIN            0

 POSCAR: Fe1                                     
  positions in direct lattice
  No initial velocities read in



--------------------------------------------------------------------------------------------------------


 ion  position               nearest neighbor table
   1  0.000  0.000  0.000-

  LATTYP: Found a body centered cubic cell.
 ALAT       =     2.8400516186
  
  Lattice vectors:
  
 A1 = (   2.3188920000,   0.0000000000,  -0.8198520000)
 A2 = (  -1.1594460000,   2.0082200000,  -0.8198520000)
 A3 = (   0.0000000000,   0.0000000000,   2.4595570000)


Analysis of symmetry for initial positions (statically):
=====================================================================
 Subroutine PRICEL returns:
 Original cell was already a primitive cell.
 

 Routine SETGRP: Setting up the symmetry group for a 
 body centered cubic supercell.


 Subroutine GETGRP returns: Found 48 space group operations
 (whereof 48 operations were pure point group operations)
 out of a pool of 48 trial point group operations.


The static configuration has the point symmetry O_h .


Analysis of symmetry for dynamics (positions and initial velocities):
=====================================================================
 Subroutine PRICEL returns:
 Original cell was already a primitive cell.
 

 Routine SETGRP: Setting up the symmetry group for a 
 body centered cubic supercell.


 Subroutine GETGRP returns: Found 48 space group operations
 (whereof 48 operations were pure point group operations)
 out of a pool of 48 trial point group operations.


The dynamic configuration has the point symmetry O_h .


 Subroutine INISYM returns: Found 48 space group operations
 (whereof 48 operations are pure point group operations),
 and found     1 'primitive' translations




Automatic generation of k-mesh.
 generate k-points for:    8    8    8
Space group operators:
 irot       det(A)        alpha          n_x          n_y          n_z        tau_x        tau_y        tau_z
    1     1.000000     0.000000     1.000000     0.000000     0.000000     0.000000     0.000000     0.000000
    2    -1.000000     0.000000     1.000000     0.000000     0.000000     0.000000     0.000000     0.000000
    3     1.000000   120.000000    -0.471405    -0.816496    -0.333334     0.000000     0.000000     0.000000
    4    -1.000000   120.000000    -0.471405    -0.816496    -0.333334     0.000000     0.000000     0.000000
    5     1.000000   120.000000     0.471404     0.816497     0.333333     0.000000     0.000000     0.000000
    6    -1.000000   120.000000     0.471404     0.816497     0.333333     0.000000     0.000000     0.000000
    7     1.000000    90.000000    -0.408248    -0.707107     0.577350     0.000000     0.000000     0.000000
    8    -1.000000    90.000000    -0.408248    -0.707107     0.577350     0.000000     0.000000     0.000000
    9     1.000000   180.000000     0.866025     0.500000     0.000000     0.000000     0.000000     0.000000
   10    -1.000000   180.000000     0.866025     0.500000     0.000000     0.000000     0.000000     0.000000
   11     1.000000    90.000000     0.816497     0.000000     0.577350     0.000000     0.000000     0.000000
   12    -1.000000    90.000000     0.816497     0.000000     0.577350     0.000000     0.000000     0.000000
   13     1.000000   180.000000     0.408248     0.707107    -0.577350     0.000000     0.000000     0.000000
   14    -1.000000   180.000000     0.408248     0.707107    -0.577350     0.000000     0.000000     0.000000
   15     1.000000   120.000000     0.942809     0.000000    -0.333333     0.000000     0.000000     0.000000
   16    -1.000000   120.000000     0.942809     0.000000    -0.333333     0.000000     0.000000     0.000000
   17     1.000000   120.000000     0.471404    -0.816497     0.333333     0.000000     0.000000     0.000000
   18    -1.000000   120.000000     0.471404    -0.816497     0.333333     0.000000     0.000000     0.000000
   19     1.000000    90.000000     0.408248     0.707107    -0.577350     0.000000     0.000000     0.000000
   20    -1.000000    90.000000     0.408248     0.707107    -0.577350     0.000000     0.000000     0.000000
   21     1.000000    90.000000     0.408248    -0.707107    -0.577350     0.000000     0.000000     0.000000
   22    -1.000000    90.000000     0.408248    -0.707107    -0.577350     0.000000     0.000000     0.000000
   23     1.000000   180.000000     0.000000     1.000000     0.000000     0.000000     0.000000     0.000000
   24    -1.000000   180.000000     0.000000     1.000000     0.000000     0.000000     0.000000     0.000000
   25     1.000000   120.000000    -0.471405     0.816497    -0.333333     0.000000     0.000000     0.000000
   26    -1.000000   120.000000    -0.471405     0.816497    -0.333333     0.000000     0.000000     0.000000
   27     1.000000   120.000000     0.000000     0.000000    -1.000000     0.000000     0.000000     0.000000
   28    -1.000000   120.000000     0.000000     0.000000    -1.000000     0.000000     0.000000     0.000000
   29     1.000000   180.000000    -0.408248     0.707107     0.577350     0.000000     0.000000     0.000000
   30    -1.000000   180.000000    -0.408248     0.707107     0.577350     0.000000     0.000000     0.000000
   31     1.000000    90.000000    -0.816496     0.000000    -0.577350     0.000000     0.000000     0.000000
   32    -1.000000    90.000000    -0.816496     0.000000    -0.577350     0.000000     0.000000     0.000000
   33     1.000000   180.000000     0.288675     0.500000     0.816497     0.000000     0.000000     0.000000
   34    -1.000000   180.000000     0.288675     0.500000     0.816497     0.000000     0.000000     0.000000
   35     1.000000    90.000000    -0.408248     0.707107     0.577350     0.000000     0.000000     0.000000
   36    -1.000000    90.000000    -0.408248     0.707107     0.577350     0.000000     0.000000     0.000000
   37     1.000000   120.000000    -0.942809    -0.000000     0.333333     0.000000     0.000000     0.000000
   38    -1.000000   120.000000    -0.942809    -0.000000     0.333333     0.000000     0.000000     0.000000
   39     1.000000   180.000000     0.816497    -0.000000     0.577350     0.000000     0.000000     0.000000
   40    -1.000000   180.000000     0.816497    -0.000000     0.577350     0.000000     0.000000     0.000000
   41     1.000000   120.000000     0.000000    -0.000000     1.000000     0.000000     0.000000     0.000000
   42    -1.000000   120.000000     0.000000    -0.000000     1.000000     0.000000     0.000000     0.000000
   43     1.000000   180.000000    -0.288675     0.500000    -0.816497     0.000000     0.000000     0.000000
   44    -1.000000   180.000000    -0.288675     0.500000    -0.816497     0.000000     0.000000     0.000000
   45     1.000000   180.000000     0.866025    -0.500000     0.000000     0.000000     0.000000     0.000000
   46    -1.000000   180.000000     0.866025    -0.500000     0.000000     0.000000     0.000000     0.000000
   47     1.000000   180.000000     0.577350     0.000000    -0.816496     0.000000     0.000000     0.000000
   48    -1.000000   180.000000     0.577350     0.000000    -0.816496     0.000000     0.000000     0.000000
 
 Subroutine IBZKPT returns following result:
 ===========================================
 
 Found     29 irreducible k-points:
 
 Following reciprocal coordinates:
            Coordinates               Weight
  0.000000  0.000000  0.000000      1.000000
  0.125000  0.000000  0.000000     12.000000
  0.250000  0.000000  0.000000     12.000000
  0.375000  0.000000  0.000000     12.000000
  0.500000  0.000000  0.000000      6.000000
  0.125000  0.125000  0.000000     24.000000
  0.250000  0.125000  0.000000     48.000000
  0.375000  0.125000  0.000000     48.000000
  0.250000  0.250000  0.000000     24.000000
  0.375000  0.250000  0.000000     24.000000
  0.125000  0.125000  0.125000      8.000000
  0.250000  0.125000  0.125000     24.000000
  0.375000  0.125000  0.125000     12.000000
 -0.125000  0.125000  0.125000      6.000000
  0.250000  0.250000  0.125000     24.000000
 -0.250000  0.250000  0.125000     24.000000
 -0.375000  0.375000  0.125000     24.000000
 -0.250000  0.375000  0.125000     24.000000
  0.500000  0.500000  0.125000     12.000000
 -0.375000  0.500000  0.125000     48.000000
 -0.375000 -0.375000  0.125000      8.000000
  0.250000  0.250000  0.250000      2.000000
 -0.250000  0.250000  0.250000      6.000000
 -0.375000  0.375000  0.250000     24.000000
  0.500000  0.500000  0.250000     12.000000
 -0.375000  0.500000  0.250000     24.000000
 -0.375000  0.375000  0.375000      6.000000
  0.500000  0.500000  0.375000     12.000000
  0.500000  0.500000  0.500000      1.000000
 
 Following cartesian coordinates:
            Coordinates               Weight
  0.000000  0.000000  0.000000      1.000000
  0.053905  0.031122  0.000000     12.000000
  0.107810  0.062244  0.000000     12.000000
  0.161715  0.093366  0.000000     12.000000
  0.215620  0.124488  0.000000      6.000000
  0.053905  0.093366  0.000000     24.000000
  0.107810  0.124488  0.000000     48.000000
  0.161715  0.155610  0.000000     48.000000
  0.107810  0.186733  0.000000     24.000000
  0.161715  0.217855  0.000000     24.000000
  0.071873  0.124488  0.050822      8.000000
  0.125778  0.155610  0.050822     24.000000
  0.179684  0.186733  0.050822     12.000000
 -0.035937  0.062244  0.050822      6.000000
  0.125778  0.217855  0.050822     24.000000
 -0.089842  0.093366  0.050822     24.000000
 -0.143747  0.124488  0.050822     24.000000
 -0.089842  0.155610  0.050822     24.000000
  0.233589  0.404587  0.050822     12.000000
 -0.143747  0.186733  0.050822     48.000000
 -0.143747 -0.248977  0.050822      8.000000
  0.143747  0.248977  0.101644      2.000000
 -0.071873  0.124488  0.101644      6.000000
 -0.125778  0.155610  0.101644     24.000000
  0.251557  0.435709  0.101644     12.000000
 -0.125778  0.217855  0.101644     24.000000
 -0.107810  0.186732  0.152466      6.000000
  0.269525  0.466831  0.152466     12.000000
  0.287494  0.497953  0.203289      1.000000
 
 TETIRR: Found    513 inequivalent tetrahedra from     3072


--------------------------------------------------------------------------------------------------------




 Dimension of arrays:
   k-points           NKPTS =     29   k-points in BZ     NKDIM =     29   number of bands    NBANDS=      8
   number of dos      NEDOS =    301   number of ions     NIONS =      1
   non local maximal  LDIM  =      6   non local SUM 2l+1 LMDIM =     18
   total plane-waves  NPLWV =   2744
   max r-space proj   IRMAX =      1   max aug-charges    IRDMAX=   8733
   dimension x,y,z NGX =    14 NGY =   14 NGZ =   14
   dimension x,y,z NGXF=    28 NGYF=   28 NGZF=   28
   support grid    NGXF=    28 NGYF=   28 NGZF=   28
   ions per type =               1
   NGX,Y,Z   is equivalent  to a cutoff of   9.46,  9.46,  9.46 a.u.
   NGXF,Y,Z  is equivalent  to a cutoff of  18.93, 18.93, 18.93 a.u.

 SYSTEM =  unknown system                          
 POSCAR =  Fe1                                     

 Startparameter for this run:
   NWRITE =      2    write-flag & timer
   PREC   = normal    normal or accurate (medium, high low for compatibility)
   ISTART =      0    job   : 0-new  1-cont  2-samecut
   ICHARG =      2    charge: 1-file 2-atom 10-const
   ISPIN  =      1    spin polarized calculation?
   LNONCOLLINEAR =      F non collinear calculations
   LSORBIT =      F    spin-orbit coupling
   INIWAV =      1    electr: 0-lowe 1-rand  2-diag
   LASPH  =      F    aspherical Exc in radial PAW
   METAGGA=      F    non-selfconsistent MetaGGA calc.

 Electronic Relaxation 1
   ENCUT  =  450.0 eV  33.07 Ry    5.75 a.u.   4.25  4.25  4.25*2*pi/ulx,y,z
   ENINI  =  450.0     initial cutoff
   ENAUG  =  511.4 eV  augmentation charge cutoff
   NELM   =     60;   NELMIN=  2; NELMDL= -5     # of ELM steps 
   EDIFF  = 0.1E-04   stopping-criterion for ELM
   LREAL  =      F    real-space projection
   NLSPLINE    = F    spline interpolate recip. space projectors
   LCOMPAT=      F    compatible to vasp.4.4
   GGA_COMPAT  = T    GGA compatible to vasp.4.4-vasp.4.6
   LMAXPAW     = -100 max onsite density
   LMAXMIX     =    2 max onsite mixed and CHGCAR
   VOSKOWN=      0    Vosko Wilk Nusair interpolation
   ROPT   =    0.00000
 Ionic relaxation
   EDIFFG = 0.1E-03   stopping-criterion for IOM
   NSW    =      0    number of steps for IOM
   NBLOCK =      1;   KBLOCK =      1    inner block; outer block 
   IBRION =     -1    ionic relax: 0-MD 1-quasi-New 2-CG
   NFREE  =      0    steps in history (QN), initial steepest desc. (CG)
   ISIF   =      3    stress and relaxation
   IWAVPR =     10    prediction:  0-non 1-charg 2-wave 3-comb
   ISYM   =      2    0-nonsym 1-usesym 2-fastsym
   LCORR  =      T    Harris-Foulkes like correction to forces

   POTIM  = 0.0200    time-step for ionic-motion
   TEIN   =    0.0    initial temperature
   TEBEG  =    0.0;   TEEND  =   0.0 temperature during run
   SMASS  =  -3.00    Nose mass-parameter (am)
   estimated Nose-frequenzy (Omega)   =  0.10E-29 period in steps =****** mass=  -0.138E-27a.u.
   SCALEE = 1.0000    scale energy and forces
   NPACO  =    256;   APACO  = 16.0  distance and # of slots for P.C.
   PSTRESS=    0.0 pullay stress

  Mass of Ions in am
   POMASS =  55.85
  Ionic Valenz
   ZVAL   =   8.00
  Atomic Wigner-Seitz radii
   RWIGS  =  -1.00
  virtual crystal weights 
   VCA    =   1.00
   NELECT =       8.0000    total number of electrons
   NUPDOWN=      -1.0000    fix difference up-down

 DOS related values:
   EMIN   =  10.00;   EMAX   =-10.00  energy-range for DOS
   EFERMI =   0.00
   ISMEAR =    -5;   SIGMA  =   0.05  broadening in eV -4-tet -1-fermi 0-gaus

 Electronic relaxation 2 (details)
   IALGO  =     38    algorithm
   LDIAG  =      T    sub-space diagonalisation (order eigenvalues)
   LSUBROT=      F    optimize rotation matrix (better conditioning)
   TURBO    =      0    0=normal 1=particle mesh
   IRESTART =      0    0=no restart 2=restart with 2 vectors
   NREBOOT  =      0    no. of reboots
   NMIN     =      0    reboot dimension
   EREF     =   0.00    reference energy to select bands
   IMIX   =      4    mixing-type and parameters
     AMIX     =   0.40;   BMIX     =  1.00
     AMIX_MAG =   1.60;   BMIX_MAG =  1.00
     AMIN     =   0.10
     WC   =   100.;   INIMIX=   1;  MIXPRE=   1;  MAXMIX= -45

 Intra band minimization:
   WEIMIN = 0.0000     energy-eigenvalue tresh-hold
   EBREAK =  0.31E-06  absolut break condition
   DEPER  =   0.30     relativ break condition  

   TIME   =   0.40     timestep for ELM

  volume/ion in A,a.u.               =      11.45        77.29
  Fermi-wavevector in a.u.,A,eV,Ry     =   1.452519  2.744864 28.705741  2.109812
  Thomas-Fermi vector in A             =   2.569892

 Write flags
   LWAVE        =      F    write WAVECAR
   LDOWNSAMPLE  =      F    k-point downsampling of WAVECAR
   LCHARG       =      F    write CHGCAR
   LVTOT        =      F    write LOCPOT, total local potential
   LVHAR        =      F    write LOCPOT, Hartree potential only
   LELF         =      F    write electronic localiz. function (ELF)
   LORBIT       =      0    0 simple, 1 ext, 2 COOP (PROOUT), +10 PAW based schemes


 Dipole corrections
   LMONO  =      F    monopole corrections only (constant potential shift)
   LDIPOL =      F    correct potential (dipole corrections)
   IDIPOL =      0    1-x, 2-y, 3-z, 4-all directions 
   EPSILON=  1.0000000 bulk dielectric constant

 Exchange correlation treatment:
   GGA     =    --    GGA type
   LEXCH   =     8    internal setting for exchange type
   VOSKOWN=      0    Vosko Wilk Nusair interpolation
   LHFCALC =     F    Hartree Fock is set to
   LHFONE  =     F    Hartree Fock one center treatment
   AEXX    =    0.0000 exact exchange contribution

 Linear response parameters
   LEPSILON=     F    determine dielectric tensor
   LRPA    =     F    only Hartree local field effects (RPA)
   LNABLA  =     F    use nabla operator in PAW spheres
   LVEL    =     F    velocity operator in full k-point grid
   LINTERFAST=   F  fast interpolation
   KINTER  =     0    interpolate to denser k-point grid
   CSHIFT  =0.1000    complex shift for real part using Kramers Kronig
   OMEGAMAX=  -1.0    maximum frequency
   DEG_THRESHOLD= 0.2000000E-02 threshold for treating states as degnerate
   RTIME   =   -0.100 relaxation time in fs
  (WPLASMAI=    0.000 imaginary part of plasma frequency in eV, 0.658/RTIME)
   DFIELD  = 0.0000000 0.0000000 0.0000000 field for delta impulse in time

 Orbital magnetization related:
   ORBITALMAG=     F  switch on orbital magnetization
   LCHIMAG   =     F  perturbation theory with respect to B field
   DQ        =  0.001000  dq finite difference perturbation B field
   LLRAUG    =     F  two centre corrections for induced B field



--------------------------------------------------------------------------------------------------------


 Static calculation
 charge density and potential will be updated during run
 non-spin polarized calculation
 Variant of blocked Davidson
 Davidson routine will perform the subspace rotation
 perform sub-space diagonalisation
    after iterative eigenvector-optimisation
 modified Broyden-mixing scheme, WC =      100.0
 initial mixing is a Kerker type mixing with AMIX =  0.4000 and BMIX =      1.0000
 Hartree-type preconditioning will be used
 using additional bands            4
 reciprocal scheme for non local part
 use partial core corrections
 calculate Harris-corrections to forces   (improved forces if not selfconsistent)
 use gradient corrections 
 use of overlap-Matrix (Vanderbilt PP)
 Fermi weights with tetrahedron method with Bloechl corrections


--------------------------------------------------------------------------------------------------------


  energy-cutoff  :      450.00
  volume of cell :       11.45
      direct lattice vectors                 reciprocal lattice vectors
     2.318892000  0.000000000 -0.819852000     0.431240437  0.248976706 -0.000000000
    -1.159446000  2.008220000 -0.819852000    -0.000000000  0.497953411  0.000000000
     0.000000000  0.000000000  2.459557000     0.143746754  0.248976605  0.406577282

  length of vectors
     2.459556344  2.459556850  2.459557000     0.497953527  0.497953411  0.497953376



 k-points in units of 2pi/SCALE and weight: read from INCAR                         
   0.00000000  0.00000000  0.00000000       0.002
   0.05390505  0.03112209  0.00000000       0.023
   0.10781011  0.06224418  0.00000000       0.023
   0.16171516  0.09336626  0.00000000       0.023
   0.21562022  0.12448835  0.00000000       0.012
   0.05390505  0.09336626  0.00000000       0.047
   0.10781011  0.12448835  0.00000000       0.094
   0.16171516  0.15561044  0.00000000       0.094
   0.10781011  0.18673253  0.00000000       0.047
   0.16171516  0.21785462  0.00000000       0.047
   0.07187340  0.12448834  0.05082216       0.016
   0.12577845  0.15561043  0.05082216       0.047
   0.17968351  0.18673252  0.05082216       0.023
  -0.03593671  0.06224416  0.05082216       0.012
   0.12577845  0.21785460  0.05082216       0.047
  -0.08984177  0.09336625  0.05082216       0.047
  -0.14374682  0.12448834  0.05082216       0.047
  -0.08984177  0.15561043  0.05082216       0.047
   0.23358856  0.40458713  0.05082216       0.023
  -0.14374682  0.18673252  0.05082216       0.094
  -0.14374682 -0.24897672  0.05082216       0.016
   0.14374680  0.24897668  0.10164432       0.004
  -0.07187342  0.12448833  0.10164432       0.012
  -0.12577848  0.15561042  0.10164432       0.047
   0.25155691  0.43570921  0.10164432       0.023
  -0.12577848  0.21785459  0.10164432       0.047
  -0.10781013  0.18673249  0.15246648       0.012
   0.26952525  0.46683129  0.15246648       0.023
   0.28749360  0.49795336  0.20328864       0.002

 k-points in reciprocal lattice and weights: read from INCAR                         
   0.00000000  0.00000000  0.00000000       0.002
   0.12500000  0.00000000  0.00000000       0.023
   0.25000000  0.00000000  0.00000000       0.023
   0.37500000  0.00000000  0.00000000       0.023
   0.50000000  0.00000000  0.00000000       0.012
   0.12500000  0.12500000  0.00000000       0.047
   0.25000000  0.12500000  0.00000000       0.094
   0.37500000  0.12500000  0.00000000       0.094
   0.25000000  0.25000000  0.00000000       0.047
   0.37500000  0.25000000  0.00000000       0.047
   0.12500000  0.12500000  0.12500000       0.016
   0.25000000  0.12500000  0.12500000       0.047
   0.37500000  0.12500000  0.12500000       0.023
  -0.12500000  0.12500000  0.12500000       0.012
   0.25000000  0.25000000  0.12500000       0.047
  -0.25000000  0.25000000  0.12500000       0.047
  -0.37500000  0.37500000  0.12500000       0.047
  -0.25000000  0.37500000  0.12500000       0.047
   0.50000000  0.50000000  0.12500000       0.023
  -0.37500000  0.50000000  0.12500000       0.094
  -0.37500000 -0.37500000  0.12500000       0.016
   0.25000000  0.25000000  0.25000000       0.004
  -0.25000000  0.25000000  0.25000000       0.012
  -0.37500000  0.37500000  0.25000000       0.047
   0.50000000  0.50000000  0.25000000       0.023
  -0.37500000  0.50000000  0.25000000       0.047
  -0.37500000  0.37500000  0.37500000       0.012
   0.50000000  0.50000000  0.37500000       0.023
   0.50000000  0.50000000  0.50000000       0.002

 position of ions in fractional coordinates (direct lattice) 
   0.00000000  0.00000000  0.00000000

 position of ions in cartesian coordinates  (Angst):
   0.00000000  0.00000000  0.00000000



--------------------------------------------------------------------------------------------------------


 k-point  1 :   0.0000 0.0000 0.0000  plane waves:     249
 k-point  2 :   0.1250 0.0000 0.0000  plane waves:     239
 k-point  3 :   0.2500 0.0000 0.0000  plane waves:     253
 k-point  4 :   0.3750 0.0000 0.0000  plane waves:     251
 k-point  5 :   0.5000 0.0000 0.0000  plane waves:     250
 k-point  6 :   0.1250 0.1250 0.0000  plane waves:     248
 k-point  7 :   0.2500 0.1250 0.0000  plane waves:     246
 k-point  8 :   0.3750 0.1250 0.0000  plane waves:     251
 k-point  9 :   0.2500 0.2500 0.0000  plane waves:     248
 k-point 10 :   0.3750 0.2500 0.0000  plane waves:     252
 k-point 11 :   0.1250 0.1250 0.1250  plane waves:     246
 k-point 12 :   0.2500 0.1250 0.1250  plane waves:     249
 k-point 13 :   0.3750 0.1250 0.1250  plane waves:     252
 k-point 14 :  -0.1250 0.1250 0.1250  plane waves:     249
 k-point 15 :   0.2500 0.2500 0.1250  plane waves:     251
 k-point 16 :  -0.2500 0.2500 0.1250  plane waves:     247
 k-point 17 :  -0.3750 0.3750 0.1250  plane waves:     248
 k-point 18 :  -0.2500 0.3750 0.1250  plane waves:     248
 k-point 19 :   0.5000 0.5000 0.1250  plane waves:     252
 k-point 20 :  -0.3750 0.5000 0.1250  plane waves:     245
 k-point 21 :  -0.3750-0.3750 0.1250  plane waves:     243
 k-point 22 :   0.2500 0.2500 0.2500  plane waves:     240
 k-point 23 :  -0.2500 0.2500 0.2500  plane waves:     241
 k-point 24 :  -0.3750 0.3750 0.2500  plane waves:     246
 k-point 25 :   0.5000 0.5000 0.2500  plane waves:     254
 k-point 26 :  -0.3750 0.5000 0.2500  plane waves:     249
 k-point 27 :  -0.3750 0.3750 0.3750  plane waves:     245
 k-point 28 :   0.5000 0.5000 0.3750  plane waves:     244
 k-point 29 :   0.5000 0.5000 0.5000  plane waves:     236

 maximum and minimum number of plane-waves per node :        50       33

 maximum number of plane-waves:       254
 maximum index in each direction: 
   IXMAX=    4   IYMAX=    4   IZMAX=    4
   IXMIN=   -4   IYMIN=   -4   IZMIN=   -4


 parallel 3D FFT for wavefunctions:
    minimum data exchange during FFTs selected (reduces bandwidth)
 parallel 3D FFT for charge:
    minimum data exchange during FFTs selected (reduces bandwidth)


 total amount of memory used by VASP MPI-rank0    30789. kBytes
=======================================================================

   base      :      30000. kBytes
   nonl-proj :        180. kBytes
   fftplans  :        147. kBytes
   grid      :        221. kBytes
   one-center:         15. kBytes
   wavefun   :        226. kBytes

     INWAV:  cpu time    0.0000: real time    0.0001
 Broyden mixing: mesh for mixing (old mesh)
   NGX =  9   NGY =  9   NGZ =  9
  (NGX  = 28   NGY  = 28   NGZ  = 28)
  gives a total of    729 points

 initial charge density was supplied:
 charge density of overlapping atoms calculated
 number of electron       8.0000000 magnetization 
 keeping initial charge density in first step


--------------------------------------------------------------------------------------------------------


 Maximum index for augmentation-charges         1571 (set IRDMAX)


--------------------------------------------------------------------------------------------------------


 First call to EWALD:  gamma=   0.786
 Maximum number of real-space cells 3x 3x 3
 Maximum number of reciprocal cells 3x 3x 3

    FEWALD:  cpu time    0.0005: real time    0.0005


--------------------------------------- Iteration      1(   1)  ---------------------------------------


    POTLOK:  cpu time    0.0033: real time    0.0039
    SETDIJ:  cpu time    0.0022: real time    0.0022
     EDDAV:  cpu time    0.0616: real time    0.0620
 BZINTS: Fermi energy: 12.115153;  8.000000 electrons
         Band energy:  58.696127;  BLOECHL correction: -0.669697
       DOS:  cpu time    0.0072: real time    0.0073
    --------------------------------------------
      LOOP:  cpu time    0.0744: real time    0.0753

 eigenvalue-minimisations  :   488
 total energy-change (2. order) : 0.6912564E+01  (-0.4073128E+03)
 number of electron       8.0000000 magnetization 
 augmentation part        8.0000000 magnetization 

 Free energy of the ion-electron system (eV)
  ---------------------------------------------------
  alpha Z        PSCENC =        60.34147461
  Ewald energy   TEWEN  =      -590.45898340
  -Hartree energ DENC   =      -112.16278697
  -exchange      EXHF   =         0.00000000
  -V(xc)+E(xc)   XCENC  =         3.88718416
  PAW double counting   =       554.84585341     -562.54823633
  entropy T*S    EENTRO =         0.00000000
  eigenvalues    EBANDS =        58.69612733
  atomic energy  EATOM  =       594.31193140
  Solvation  Ediel_sol  =         0.00000000
  ---------------------------------------------------
  free energy    TOTEN  =         6.91256422 eV

  energy without entropy =        6.91256422  energy(sigma->0) =        6.91256422


--------------------------------------------------------------------------------------------------------




--------------------------------------- Iteration      1(   2)  ---------------------------------------


     EDDAV:  cpu time    0.0600: real time    0.0606
 BZINTS: Fermi energy:  8.353452;  8.000000 electrons
         Band energy:  42.658612;  BLOECHL correction: -0.066965
       DOS:  cpu time    0.0072: real time    0.0073
    --------------------------------------------
      LOOP:  cpu time    0.0673: real time    0.0679

 eigenvalue-minimisations  :   496
 total energy-change (2. order) :-0.1603751E+02  (-0.1553006E+02)
 number of electron       8.0000000 magnetization 
 augmentation part        8.0000000 magnetization 

 Free energy of the ion-electron system (eV)
  ---------------------------------------------------
  alpha Z        PSCENC =        60.34147461
  Ewald energy   TEWEN  =      -590.45898340
  -Hartree energ DENC   =      -112.16278697
  -exchange      EXHF   =         0.00000000
  -V(xc)+E(xc)   XCENC  =         3.88718416
  PAW double counting   =       554.84585341     -562.54823633
  entropy T*S    EENTRO =         0.00000000
  eigenvalues    EBANDS =        42.65861244
  atomic energy  EATOM  =       594.31193140
  Solvation  Ediel_sol  =         0.00000000
  ---------------------------------------------------
  free energy    TOTEN  =        -9.12495067 eV

  energy without entropy =       -9.12495067  energy(sigma->0) =       -9.12495067


--------------------------------------------------------------------------------------------------------




--------------------------------------- Iteration      1(   3)  ---------------------------------------


     EDDAV:  cpu time    0.0704: real time    0.0708
 BZINTS: Fermi energy:  8.335054;  8.000275 electrons
         Band energy:  42.553939;  BLOECHL correction: -0.068114
       DOS:  cpu time    0.0093: real time    0.0094
    --------------------------------------------
      LOOP:  cpu time    0.0797: real time    0.0802

 eigenvalue-minimisations  :   592
 total energy-change (2. order) :-0.1046733E+00  (-0.1060695E+00)
 number of electron       8.0000000 magnetization 
 augmentation part        8.0000000 magnetization 

 Free energy of the ion-electron system (eV)
  ---------------------------------------------------
  alpha Z        PSCENC =        60.34147461
  Ewald energy   TEWEN  =      -590.45898340
  -Hartree energ DENC   =      -112.16278697
  -exchange      EXHF   =         0.00000000
  -V(xc)+E(xc)   XCENC  =         3.88718416
  PAW double counting   =       554.84585341     -562.54823633
  entropy T*S    EENTRO =         0.00000000
  eigenvalues    EBANDS =        42.55393915
  atomic energy  EATOM  =       594.31193140
  Solvation  Ediel_sol  =         0.00000000
  ---------------------------------------------------
  free energy    TOTEN  =        -9.22962395 eV

  energy without entropy =       -9.22962395  energy(sigma->0) =       -9.22962395


--------------------------------------------------------------------------------------------------------




--------------------------------------- Iteration      1(   4)  ---------------------------------------


     EDDAV:  cpu time    0.0691: real time    0.0695
 BZINTS: Fermi energy:  8.335052;  8.000562 electrons
         Band energy:  42.555653;  BLOECHL correction: -0.068110
       DOS:  cpu time    0.0095: real time    0.0097
    --------------------------------------------
      LOOP:  cpu time    0.0787: real time    0.0792

 eigenvalue-minimisations  :   584
 total energy-change (2. order) : 0.1714077E-02  (-0.6833608E-03)
 number of electron       8.0000000 magnetization 
 augmentation part        8.0000000 magnetization 

 Free energy of the ion-electron system (eV)
  ---------------------------------------------------
  alpha Z        PSCENC =        60.34147461
  Ewald energy   TEWEN  =      -590.45898340
  -Hartree energ DENC   =      -112.16278697
  -exchange      EXHF   =         0.00000000
  -V(xc)+E(xc)   XCENC  =         3.88718416
  PAW double counting   =       554.84585341     -562.54823633
  entropy T*S    EENTRO =         0.00000000
  eigenvalues    EBANDS =        42.55565323
  atomic energy  EATOM  =       594.31193140
  Solvation  Ediel_sol  =         0.00000000
  ---------------------------------------------------
  free energy    TOTEN  =        -9.22790988 eV

  energy without entropy =       -9.22790988  energy(sigma->0) =       -9.22790988


--------------------------------------------------------------------------------------------------------




--------------------------------------- Iteration      1(   5)  ---------------------------------------


     EDDAV:  cpu time    0.0600: real time    0.0603
 BZINTS: Fermi energy:  8.335052;  7.997960 electrons
         Band energy:  42.534236;  BLOECHL correction: -0.067832
       DOS:  cpu time    0.0094: real time    0.0095
    CHARGE:  cpu time    0.0051: real time    0.0051
    MIXING:  cpu time    0.0002: real time    0.0003
    --------------------------------------------
      LOOP:  cpu time    0.0747: real time    0.0752

 eigenvalue-minimisations  :   496
 total energy-change (2. order) :-0.2141698E-01  (-0.3647714E-05)
 number of electron       7.9979614 magnetization 
 augmentation part        3.5519126 magnetization 

 Broyden mixing:
  rms(total) = 0.10976E+01    rms(broyden)= 0.10976E+01
  rms(prec ) = 0.36552E+01
  weight for this iteration     100.00

 Free energy of the ion-electron system (eV)
  ---------------------------------------------------
  alpha Z        PSCENC =        60.34147461
  Ewald energy   TEWEN  =      -590.45898340
  -Hartree energ DENC   =      -112.16278697
  -exchange      EXHF   =         0.00000000
  -V(xc)+E(xc)   XCENC  =         3.88718416
  PAW double counting   =       554.84585341     -562.54823633
  entropy T*S    EENTRO =         0.00000000
  eigenvalues    EBANDS =        42.53423625
  atomic energy  EATOM  =       594.31193140
  Solvation  Ediel_sol  =         0.00000000
  ---------------------------------------------------
  free energy    TOTEN  =        -9.24932686 eV

  energy without entropy =       -9.24932686  energy(sigma->0) =       -9.24932686


--------------------------------------------------------------------------------------------------------




--------------------------------------- Iteration      1(   6)  ---------------------------------------


    POTLOK:  cpu time    0.0028: real time    0.0028
    SETDIJ:  cpu time    0.0020: real time    0.0020
     EDDAV:  cpu time    0.0569: real time    0.0572
 BZINTS: Fermi energy:  5.014583;  8.000000 electrons
         Band energy:  24.246316;  BLOECHL correction: -0.057252
       DOS:  cpu time    0.0075: real time    0.0076
    CHARGE:  cpu time    0.0049: real time    0.0049
    MIXING:  cpu time    0.0003: real time    0.0003
    --------------------------------------------
      LOOP:  cpu time    0.0743: real time    0.0748

 eigenvalue-minimisations  :   472
 total energy-change (2. order) : 0.1375253E+01  (-0.1673939E+01)
 number of electron       8.0000022 magnetization 
 augmentation part        4.3181006 magnetization 

 Broyden mixing:
  rms(total) = 0.28017E+00    rms(broyden)= 0.28016E+00
  rms(prec ) = 0.82936E+00
  weight for this iteration     100.00

 eigenvalues of (default mixing * dielectric matrix)
  average eigenvalue GAMMA=   0.8673
  0.8673

 Free energy of the ion-electron system (eV)
  ---------------------------------------------------
  alpha Z        PSCENC =        60.34147461
  Ewald energy   TEWEN  =      -590.45898340
  -Hartree energ DENC   =       -94.17279471
  -exchange      EXHF   =         0.00000000
  -V(xc)+E(xc)   XCENC  =         3.00493311
  PAW double counting   =       600.21805513     -605.36500599
  entropy T*S    EENTRO =         0.00000000
  eigenvalues    EBANDS =        24.24631595
  atomic energy  EATOM  =       594.31193140
  Solvation  Ediel_sol  =         0.00000000
  ---------------------------------------------------
  free energy    TOTEN  =        -7.87407389 eV

  energy without entropy =       -7.87407389  energy(sigma->0) =       -7.87407389


--------------------------------------------------------------------------------------------------------




--------------------------------------- Iteration      1(   7)  ---------------------------------------


    POTLOK:  cpu time    0.0028: real time    0.0028
    SETDIJ:  cpu time    0.0019: real time    0.0019
     EDDAV:  cpu time    0.0560: real time    0.0562
 BZINTS: Fermi energy:  5.882597;  8.000000 electrons
         Band energy:  29.213733;  BLOECHL correction: -0.061040
       DOS:  cpu time    0.0072: real time    0.0073
    CHARGE:  cpu time    0.0051: real time    0.0052
    MIXING:  cpu time    0.0002: real time    0.0002
    --------------------------------------------
      LOOP:  cpu time    0.0732: real time    0.0736

 eigenvalue-minimisations  :   464
 total energy-change (2. order) : 0.1499838E+00  (-0.1194227E+00)
 number of electron       8.0000021 magnetization 
 augmentation part        4.1160075 magnetization 

 Broyden mixing:
  rms(total) = 0.76492E-01    rms(broyden)= 0.76489E-01
  rms(prec ) = 0.26858E+00
  weight for this iteration     100.00

 eigenvalues of (default mixing * dielectric matrix)
  average eigenvalue GAMMA=   0.9861
  1.2472  0.7250

 Free energy of the ion-electron system (eV)
  ---------------------------------------------------
  alpha Z        PSCENC =        60.34147461
  Ewald energy   TEWEN  =      -590.45898340
  -Hartree energ DENC   =       -97.34455764
  -exchange      EXHF   =         0.00000000
  -V(xc)+E(xc)   XCENC  =         3.18445415
  PAW double counting   =       632.19936169     -639.17150399
  entropy T*S    EENTRO =         0.00000000
  eigenvalues    EBANDS =        29.21373312
  atomic energy  EATOM  =       594.31193140
  Solvation  Ediel_sol  =         0.00000000
  ---------------------------------------------------
  free energy    TOTEN  =        -7.72409006 eV

  energy without entropy =       -7.72409006  energy(sigma->0) =       -7.72409006


--------------------------------------------------------------------------------------------------------




--------------------------------------- Iteration      1(   8)  ---------------------------------------


    POTLOK:  cpu time    0.0027: real time    0.0028
    SETDIJ:  cpu time    0.0019: real time    0.0019
     EDDAV:  cpu time    0.0772: real time    0.0776
 BZINTS: Fermi energy:  5.811763;  8.000000 electrons
         Band energy:  28.822440;  BLOECHL correction: -0.060872
       DOS:  cpu time    0.0075: real time    0.0076
    CHARGE:  cpu time    0.0050: real time    0.0050
    MIXING:  cpu time    0.0002: real time    0.0002
    --------------------------------------------
      LOOP:  cpu time    0.0945: real time    0.0951

 eigenvalue-minimisations  :   672
 total energy-change (2. order) : 0.1191168E-01  (-0.9346736E-03)
 number of electron       8.0000022 magnetization 
 augmentation part        4.1322321 magnetization 

 Broyden mixing:
  rms(total) = 0.31542E-01    rms(broyden)= 0.31542E-01
  rms(prec ) = 0.10901E+00
  weight for this iteration     100.00

 eigenvalues of (default mixing * dielectric matrix)
  average eigenvalue GAMMA=   1.4238
  0.7469  1.0413  2.4833

 Free energy of the ion-electron system (eV)
  ---------------------------------------------------
  alpha Z        PSCENC =        60.34147461
  Ewald energy   TEWEN  =      -590.45898340
  -Hartree energ DENC   =       -96.18873486
  -exchange      EXHF   =         0.00000000
  -V(xc)+E(xc)   XCENC  =         3.14191829
  PAW double counting   =       658.88641288     -666.56863725
  entropy T*S    EENTRO =         0.00000000
  eigenvalues    EBANDS =        28.82243996
  atomic energy  EATOM  =       594.31193140
  Solvation  Ediel_sol  =         0.00000000
  ---------------------------------------------------
  free energy    TOTEN  =        -7.71217838 eV

  energy without entropy =       -7.71217838  energy(sigma->0) =       -7.71217838


--------------------------------------------------------------------------------------------------------




--------------------------------------- Iteration      1(   9)  ---------------------------------------


    POTLOK:  cpu time    0.0028: real time    0.0029
    SETDIJ:  cpu time    0.0019: real time    0.0019
     EDDAV:  cpu time    0.0721: real time    0.0725
 BZINTS: Fermi energy:  5.779981;  8.000000 electrons
         Band energy:  28.632658;  BLOECHL correction: -0.060799
       DOS:  cpu time    0.0071: real time    0.0072
    CHARGE:  cpu time    0.0052: real time    0.0052
    MIXING:  cpu time    0.0002: real time    0.0002
    --------------------------------------------
      LOOP:  cpu time    0.0892: real time    0.0898

 eigenvalue-minimisations  :   624
 total energy-change (2. order) : 0.3345110E-02  (-0.2745901E-03)
 number of electron       8.0000022 magnetization 
 augmentation part        4.1399431 magnetization 

 Broyden mixing:
  rms(total) = 0.60320E-02    rms(broyden)= 0.60317E-02
  rms(prec ) = 0.85968E-02
  weight for this iteration     100.00

 eigenvalues of (default mixing * dielectric matrix)
  average eigenvalue GAMMA=   1.4670
  2.6441  0.7462  0.9757  1.5022

 Free energy of the ion-electron system (eV)
  ---------------------------------------------------
  alpha Z        PSCENC =        60.34147461
  Ewald energy   TEWEN  =      -590.45898340
  -Hartree energ DENC   =       -95.25216450
  -exchange      EXHF   =         0.00000000
  -V(xc)+E(xc)   XCENC  =         3.11092371
  PAW double counting   =       686.51337047     -694.90804393
  entropy T*S    EENTRO =         0.00000000
  eigenvalues    EBANDS =        28.63265838
  atomic energy  EATOM  =       594.31193140
  Solvation  Ediel_sol  =         0.00000000
  ---------------------------------------------------
  free energy    TOTEN  =        -7.70883327 eV

  energy without entropy =       -7.70883327  energy(sigma->0) =       -7.70883327


--------------------------------------------------------------------------------------------------------




--------------------------------------- Iteration      1(  10)  ---------------------------------------


    POTLOK:  cpu time    0.0027: real time    0.0028
    SETDIJ:  cpu time    0.0019: real time    0.0019
     EDDAV:  cpu time    0.0448: real time    0.0450
 BZINTS: Fermi energy:  5.779972;  8.000000 electrons
         Band energy:  28.632541;  BLOECHL correction: -0.060805
       DOS:  cpu time    0.0075: real time    0.0076
    CHARGE:  cpu time    0.0051: real time    0.0051
    MIXING:  cpu time    0.0002: real time    0.0002
    --------------------------------------------
      LOOP:  cpu time    0.0622: real time    0.0627

 eigenvalue-minimisations  :   328
 total energy-change (2. order) :-0.1253558E-04  (-0.6457527E-06)
 number of electron       8.0000022 magnetization 
 augmentation part        4.1398689 magnetization 

 Broyden mixing:
  rms(total) = 0.36341E-02    rms(broyden)= 0.36341E-02
  rms(prec ) = 0.58694E-02
  weight for this iteration     100.00

 eigenvalues of (default mixing * dielectric matrix)
  average eigenvalue GAMMA=   1.5770
  0.7465  0.9707  1.0344  2.5667  2.5667

 Free energy of the ion-electron system (eV)
  ---------------------------------------------------
  alpha Z        PSCENC =        60.34147461
  Ewald energy   TEWEN  =      -590.45898340
  -Hartree energ DENC   =       -95.26427126
  -exchange      EXHF   =         0.00000000
  -V(xc)+E(xc)   XCENC  =         3.11187286
  PAW double counting   =       686.98527531     -695.36868619
  entropy T*S    EENTRO =         0.00000000
  eigenvalues    EBANDS =        28.63254087
  atomic energy  EATOM  =       594.31193140
  Solvation  Ediel_sol  =         0.00000000
  ---------------------------------------------------
  free energy    TOTEN  =        -7.70884580 eV

  energy without entropy =       -7.70884580  energy(sigma->0) =       -7.70884580


--------------------------------------------------------------------------------------------------------




--------------------------------------- Iteration      1(  11)  ---------------------------------------


    POTLOK:  cpu time    0.0028: real time    0.0029
    SETDIJ:  cpu time    0.0018: real time    0.0018
     EDDAV:  cpu time    0.0367: real time    0.0369
 BZINTS: Fermi energy:  5.780743;  8.000000 electrons
         Band energy:  28.635900;  BLOECHL correction: -0.060809
       DOS:  cpu time    0.0074: real time    0.0075
    --------------------------------------------
      LOOP:  cpu time    0.0487: real time    0.0490

 eigenvalue-minimisations  :   248
 total energy-change (2. order) : 0.8495819E-05  (-0.2245780E-06)
 number of electron       8.0000022 magnetization 
 augmentation part        4.1398689 magnetization 

 Free energy of the ion-electron system (eV)
  ---------------------------------------------------
  alpha Z        PSCENC =        60.34147461
  Ewald energy   TEWEN  =      -590.45898340
  -Hartree energ DENC   =       -95.31302606
  -exchange      EXHF   =         0.00000000
  -V(xc)+E(xc)   XCENC  =         3.11409566
  PAW double counting   =       686.51379770     -694.85402710
  entropy T*S    EENTRO =         0.00000000
  eigenvalues    EBANDS =        28.63589987
  atomic energy  EATOM  =       594.31193140
  Solvation  Ediel_sol  =         0.00000000
  ---------------------------------------------------
  free energy    TOTEN  =        -7.70883731 eV

  energy without entropy =       -7.70883731  energy(sigma->0) =       -7.70883731


--------------------------------------------------------------------------------------------------------




 average (electrostatic) potential at core
  the test charge radii are     1.0103
  (the norm of the test charge is              1.0000)
       1 -43.6671



 E-fermi :   5.7807     XC(G=0): -13.1143     alpha+bet :-13.5331


 k-point     1 :       0.0000    0.0000    0.0000
  band No.  band energies     occupation 
      1      -2.5825      2.00000
      2       4.2255      2.00000
      3       4.2255      2.00000
      4       4.2256      2.00000
      5       5.7528      2.00000
      6       5.7528      1.45166
      7      30.5673      0.00000
      8      30.5673      0.00000

 k-point     2 :       0.1250    0.0000    0.0000
  band No.  band energies     occupation 
      1      -1.9496      2.00000
      2       4.0469      2.00000
      3       4.1889      2.00000
      4       4.5727      2.00000
      5       5.5959      1.99701
      6       5.7691      0.61580
      7      27.3008      0.00000
      8      29.5416      0.00000

 k-point     3 :       0.2500    0.0000    0.0000
  band No.  band energies     occupation 
      1      -0.2876      2.00000
      2       3.6326      2.00000
      3       4.0279      2.00000
      4       5.4788      2.00070
      5       5.5172      1.86418
      6       5.8278      0.00053
      7      21.6908      0.00000
      8      26.9231      0.00000

 k-point     4 :       0.3750    0.0000    0.0000
  band No.  band energies     occupation 
      1       1.1733      2.00000
      2       3.2404      2.00000
      3       4.7684      2.00000
      4       5.6924      1.96610
      5       5.9171      0.12387
      6       6.5124      0.00000
      7      16.3637      0.00000
      8      24.8130      0.00000

 k-point     5 :       0.5000    0.0000    0.0000
  band No.  band energies     occupation 
      1       1.4074      2.00000
      2       3.0837      2.00000
      3       5.7302      2.00000
      4       5.9637      0.57740
      5       6.2908      0.00000
      6       6.9914      0.00000
      7      13.5411      0.00000
      8      24.0416      0.00000

 k-point     6 :       0.1250    0.1250    0.0000
  band No.  band energies     occupation 
      1      -0.7796      2.00000
      2       3.8432      2.00000
      3       3.8991      2.00000
      4       5.2855      2.00068
      5       5.4191      2.07388
      6       5.8675     -0.03926
      7      24.3390      0.00000
      8      25.5266      0.00000

 k-point     7 :       0.2500    0.1250    0.0000
  band No.  band energies     occupation 
      1       0.9824      2.00000
      2       3.4222      2.00000
      3       3.7842      2.00000
      4       5.4825      2.04373
      5       5.9723      0.23195
      6       6.5451     -0.00026
      7      19.1622      0.00000
      8      22.8934      0.00000

 k-point     8 :       0.3750    0.1250    0.0000
  band No.  band energies     occupation 
      1       1.7018      2.00000
      2       3.1628      2.00000
      3       4.5850      2.00000
      4       5.6794      1.96347
      5       6.1849     -0.00388
      6       8.1164      0.00000
      7      14.5144      0.00000
      8      21.5976      0.00000

 k-point     9 :       0.2500    0.2500    0.0000
  band No.  band energies     occupation 
      1       2.2195      2.00000
      2       3.1311      2.00000
      3       3.6711      2.00000
      4       5.6024      2.12974
      5       6.0791     -0.00356
      6       8.6455      0.00000
      7      17.0138      0.00000
      8      17.9069      0.00000

 k-point    10 :       0.3750    0.2500    0.0000
  band No.  band energies     occupation 
      1       2.4590      2.00000
      2       3.1569      2.00000
      3       3.7273      2.00000
      4       5.7739      1.29350
      5       6.0961      0.00000
      6      11.0216      0.00000
      7      13.7186      0.00000
      8      16.9278      0.00000

 k-point    11 :       0.1250    0.1250    0.1250
  band No.  band energies     occupation 
      1       0.7339      2.00000
      2       3.4112      2.00000
      3       3.4112      2.00000
      4       5.7492      1.92489
      5       5.7492      0.80422
      6       6.5726     -0.00131
      7      21.9593      0.00000
      8      21.9593      0.00000

 k-point    12 :       0.2500    0.1250    0.1250
  band No.  band energies     occupation 
      1       2.1166      2.00000
      2       3.0825      2.00000
      3       3.5337      2.00000
      4       5.8045      1.14104
      5       5.9296      0.00615
      6       8.3784      0.00000
      7      16.9989      0.00000
      8      20.3729      0.00000

 k-point    13 :       0.3750    0.1250    0.1250
  band No.  band energies     occupation 
      1       2.1991      2.00000
      2       2.9713      2.00000
      3       4.2422      2.00000
      4       5.8628      0.35214
      5       5.9831      0.00000
      6      10.1808      0.00000
      7      13.7292      0.00000
      8      19.8124      0.00000

 k-point    14 :      -0.1250    0.1250    0.1250
  band No.  band energies     occupation 
      1      -1.3434      2.00000
      2       4.2381      2.00000
      3       4.2381      2.00000
      4       4.5756      2.00000
      5       5.1474      2.02072
      6       5.9785     -0.18599
      7      26.5621      0.00000
      8      28.5614      0.00000

 k-point    15 :       0.2500    0.2500    0.1250
  band No.  band energies     occupation 
      1       2.7110      2.00000
      2       3.0887      2.00000
      3       3.4517      2.00000
      4       5.9216     -0.04756
      5       5.9907     -0.00024
      6      11.1961      0.00000
      7      15.2468      0.00000
      8      16.4145      0.00000

 k-point    16 :      -0.2500    0.2500    0.1250
  band No.  band energies     occupation 
      1       0.2263      2.00000
      2       3.9700      2.00000
      3       4.0154      2.00000
      4       4.9657      2.00000
      5       5.3991      1.89933
      6       6.2004     -0.00479
      7      22.1282      0.00000
      8      25.8896      0.00000

 k-point    17 :      -0.3750    0.3750    0.1250
  band No.  band energies     occupation 
      1       1.5899      2.00000
      2       3.6262      2.00000
      3       3.8895      2.00000
      4       5.3682      2.02431
      5       6.4540     -0.09614
      6       6.9916      0.00000
      7      16.7198      0.00000
      8      24.0412      0.00000

 k-point    18 :      -0.2500    0.3750    0.1250
  band No.  band energies     occupation 
      1       1.6548      2.00000
      2       3.4013      2.00000
      3       4.0930      2.00000
      4       5.0472      2.01006
      5       6.0460      0.12087
      6       7.1167      0.00000
      7      19.7227      0.00000
      8      20.4134      0.00000

 k-point    19 :       0.5000    0.5000    0.1250
  band No.  band energies     occupation 
      1       1.7861      2.00000
      2       3.4861      2.00000
      3       4.2058      2.00000
      4       5.4084      2.07467
      5       6.9501      0.00000
      6       8.5012      0.00000
      7      13.6101      0.00000
      8      23.1851      0.00000

 k-point    20 :      -0.3750    0.5000    0.1250
  band No.  band energies     occupation 
      1       2.3127      2.00000
      2       3.2625      2.00000
      3       3.8085      2.00033
      4       5.4193      2.07460
      5       6.4812     -0.00403
      6       9.5716      0.00000
      7      15.0077      0.00000
      8      18.7836      0.00000

 k-point    21 :      -0.3750   -0.3750    0.1250
  band No.  band energies     occupation 
      1       2.9469      2.00000
      2       2.9469      2.00000
      3       3.3887      2.00111
      4       6.0525      0.35298
      5       6.0525      0.00000
      6      13.1506      0.00000
      7      13.1506      0.00000
      8      15.5114      0.00000

 k-point    22 :       0.2500    0.2500    0.2500
  band No.  band energies     occupation 
      1       3.1182      2.00000
      2       3.1182      2.00000
      3       3.1182      2.00000
      4       6.0029     -0.00053
      5       6.0029      0.00000
      6      14.6312      0.00000
      7      14.6312      0.00000
      8      14.6312      0.00000

 k-point    23 :      -0.2500    0.2500    0.2500
  band No.  band energies     occupation 
      1       1.3947      2.00000
      2       3.6863      2.00000
      3       4.6428      2.00001
      4       4.6428      2.00629
      5       5.4412      1.35120
      6       6.8466      0.00000
      7      22.9635      0.00000
      8      22.9635      0.00000

 k-point    24 :      -0.3750    0.3750    0.2500
  band No.  band energies     occupation 
      1       2.2102      2.00000
      2       2.9482      2.00000
      3       4.6589      2.01663
      4       5.1274      2.09627
      5       6.3238     -0.02256
      6       8.6056      0.00000
      7      17.7622      0.00000
      8      20.6185      0.00000

 k-point    25 :       0.5000    0.5000    0.2500
  band No.  band energies     occupation 
      1       2.2797      2.00000
      2       2.8166      2.00000
      3       4.5842      2.03474
      4       5.2476      2.19553
      5       6.8513      0.00000
      6      11.2035      0.00000
      7      13.9578      0.00000
      8      19.6817      0.00000

 k-point    26 :      -0.3750    0.5000    0.2500
  band No.  band energies     occupation 
      1       2.3812      2.00000
      2       2.4358      2.00000
      3       4.7048      2.07881
      4       5.8817      0.95662
      5       6.5337     -0.00183
      6      11.6514      0.00000
      7      15.9236      0.00000
      8      16.6327      0.00000

 k-point    27 :      -0.3750    0.3750    0.3750
  band No.  band energies     occupation 
      1       2.0947      2.00000
      2       2.2689      2.00000
      3       5.7946      1.62328
      4       5.7946      1.05462
      5       6.3352     -0.00504
      6      10.9053      0.00000
      7      17.9930      0.00000
      8      17.9930      0.00000

 k-point    28 :       0.5000    0.5000    0.3750
  band No.  band energies     occupation 
      1       1.9602      2.00000
      2       1.9799      2.00000
      3       5.9750      1.03036
      4       6.1545      0.03747
      5       6.7536      0.00000
      6      14.0123      0.00000
      7      14.8718      0.00000
      8      16.9096      0.00000

 k-point    29 :       0.5000    0.5000    0.5000
  band No.  band energies     occupation 
      1       1.7018      2.00000
      2       1.7018      2.00000
      3       6.7134     -0.12851
      4       6.7134      0.00000
      5       6.7134      0.00000
      6      15.7277      0.00000
      7      15.7278      0.00000
      8      15.7278      0.00000


--------------------------------------------------------------------------------------------------------


 soft charge-density along one line, spin component           1
         0         1         2         3         4         5         6         7         8         9
 total charge-density along one line

 pseudopotential strength for first ion, spin component:           1
 -5.094   0.010   0.000  -0.000   0.000  -5.640   0.010   0.000
  0.010  -5.101   0.000  -0.000   0.000   0.010  -5.647   0.000
  0.000   0.000  -5.087   0.000  -0.000   0.000   0.000  -5.633
 -0.000  -0.000   0.000  -5.101  -0.010  -0.000  -0.000   0.000
  0.000   0.000  -0.000  -0.010  -5.094   0.000   0.000  -0.000
 -5.640   0.010   0.000  -0.000   0.000  -6.144   0.009   0.000
  0.010  -5.647   0.000  -0.000   0.000   0.009  -6.151   0.000
  0.000   0.000  -5.633   0.000  -0.000   0.000   0.000  -6.137
 -0.000  -0.000   0.000  -5.647  -0.010  -0.000  -0.000   0.000
  0.000   0.000  -0.000  -0.010  -5.640   0.000   0.000  -0.000
  0.000   0.000  -0.000   0.000   0.000   0.000   0.000  -0.000
  0.000   0.000  -0.000   0.000   0.000   0.000   0.000  -0.000
  0.000   0.000   0.000  -0.000   0.000   0.000   0.000   0.000
 -0.000  -0.000   0.000   0.000   0.000  -0.000  -0.000   0.000
 -0.000  -0.000  -0.000   0.000  -0.000  -0.000  -0.000  -0.000
  0.000   0.000   0.000  -0.000   0.000   0.000   0.000   0.000
 -0.000  -0.000   0.000   0.000   0.000  -0.000  -0.000   0.000
 -0.000  -0.000  -0.000   0.000   0.000  -0.000  -0.000  -0.000
 total augmentation occupancy for first ion, spin component:           1
  1.858  -0.264  -0.000   0.000  -0.000  -0.876   0.268   0.000  -0.000  -0.000  -0.000   0.000   0.000   0.000   0.000   0.000
 -0.264   2.045   0.000  -0.000  -0.000   0.268  -1.066  -0.000   0.000   0.000   0.000  -0.000   0.000   0.000   0.000   0.000
 -0.000   0.000   1.672   0.000   0.000   0.000  -0.000  -0.687  -0.000  -0.000   0.000  -0.000   0.000   0.000   0.000   0.000
  0.000  -0.000   0.000   2.045   0.264  -0.000   0.000  -0.000  -1.066  -0.268   0.000  -0.000   0.000   0.000   0.000   0.000
 -0.000  -0.000   0.000   0.264   1.858   0.000   0.000  -0.000  -0.268  -0.876  -0.000   0.000   0.000   0.000   0.000   0.000
 -0.876   0.268   0.000  -0.000  -0.000   1.254  -0.173  -0.000   0.000   0.000  -0.000  -0.000   0.000   0.000   0.000   0.000
  0.268  -1.066  -0.000   0.000   0.000  -0.173   1.377   0.000  -0.000  -0.000  -0.000   0.000   0.000   0.000   0.000   0.000
  0.000  -0.000  -0.687  -0.000  -0.000  -0.000   0.000   1.132   0.000   0.000  -0.000   0.000   0.000   0.000   0.000   0.000
 -0.000   0.000  -0.000  -1.066  -0.268   0.000  -0.000   0.000   1.377   0.173  -0.000   0.000   0.000   0.000   0.000   0.000
 -0.000   0.000  -0.000  -0.268  -0.876   0.000  -0.000   0.000   0.173   1.254   0.000  -0.000   0.000   0.000   0.000   0.000
  0.000   0.000   0.000   0.000  -0.000   0.000  -0.000  -0.000  -0.000   0.000   2.306  -0.254   0.000   0.000   0.000   0.000
 -0.000  -0.000  -0.000  -0.000   0.000  -0.000   0.000   0.000   0.000  -0.000  -0.254   0.031   0.000   0.000   0.000   0.000
  0.000   0.000   0.000   0.000   0.000   0.000   0.000   0.000   0.000   0.000   0.000   0.000   0.278   0.000  -0.000  -0.024
  0.000   0.000   0.000   0.000   0.000   0.000   0.000   0.000   0.000   0.000   0.000   0.000   0.000   0.278   0.000  -0.000
  0.000   0.000   0.000   0.000   0.000   0.000   0.000   0.000   0.000   0.000   0.000   0.000  -0.000   0.000   0.278   0.000
  0.000   0.000   0.000   0.000   0.000   0.000   0.000   0.000   0.000   0.000   0.000   0.000  -0.024  -0.000   0.000   0.002
  0.000   0.000   0.000   0.000   0.000   0.000   0.000   0.000   0.000   0.000   0.000   0.000  -0.000  -0.024  -0.000   0.000
  0.000   0.000   0.000   0.000   0.000   0.000   0.000   0.000   0.000   0.000   0.000   0.000   0.000  -0.000  -0.024  -0.000


------------------------ aborting loop because EDIFF is reached ----------------------------------------


    CHARGE:  cpu time    0.0051: real time    0.0051
    FORLOC:  cpu time    0.0001: real time    0.0001
    FORNL :  cpu time    0.0062: real time    0.0062
    STRESS:  cpu time    0.0212: real time    0.0213
    FORCOR:  cpu time    0.0028: real time    0.0028
    FORHAR:  cpu time    0.0008: real time    0.0008
    MIXING:  cpu time    0.0002: real time    0.0002
    OFIELD:  cpu time    0.0000: real time    0.0000

  FORCE on cell =-STRESS in cart. coord.  units (eV):
  Direction    XX          YY          ZZ          XY          YZ          ZX
  --------------------------------------------------------------------------------------
  Alpha Z    60.34147    60.34147    60.34147
  Ewald    -196.81961  -196.81968  -196.81967    -0.00001    -0.00001    -0.00002
  Hartree    31.77104    31.77103    31.77103    -0.00000     0.00000    -0.00000
  E(xc)     -38.73085   -38.73085   -38.73086     0.00000     0.00000     0.00000
  Local      58.51281    58.51279    58.51286    -0.00004    -0.00004    -0.00001
  n-local   -27.90732   -29.22552   -25.75078     0.44911    -1.74520     0.27543
  augment    38.04496    38.04503    38.04496     0.00005     0.00004     0.00002
  Kinetic    74.13095    73.24193    71.86186     0.88468     2.49649     0.78001
  Fock        0.00000     0.00000     0.00000     0.00000     0.00000     0.00000
  -------------------------------------------------------------------------------------
  Total      -1.42983    -1.42983    -1.42983    -0.00000    -0.00000    -0.00000
  in kB    -200.00728  -200.00741  -200.00738    -0.00000    -0.00005    -0.00003
  external pressure =     -200.01 kB  Pullay stress =        0.00 kB


 VOLUME and BASIS-vectors are now :
 -----------------------------------------------------------------------------
  energy-cutoff  :      450.00
  volume of cell :       11.45
      direct lattice vectors                 reciprocal lattice vectors
     2.318892000  0.000000000 -0.819852000     0.431240437  0.248976706 -0.000000000
    -1.159446000  2.008220000 -0.819852000    -0.000000000  0.497953411  0.000000000
     0.000000000  0.000000000  2.459557000     0.143746754  0.248976605  0.406577282

  length of vectors
     2.459556344  2.459556850  2.459557000     0.497953527  0.497953411  0.497953376


 FORCES acting on ions
    electron-ion (+dipol)            ewald-force                    non-local-force                 convergence-correction
 -----------------------------------------------------------------------------------------------
   -.709E-14 -.171E-13 -.619E-14   0.410E-15 0.619E-15 0.372E-15   0.549E-22 -.154E-22 0.107E-22   -.847E-14 -.174E-13 -.803E-14
 -----------------------------------------------------------------------------------------------
   -.709E-14 -.171E-13 -.619E-14   0.410E-15 0.619E-15 0.372E-15   0.549E-22 -.154E-22 0.107E-22   -.847E-14 -.174E-13 -.803E-14


 POSITION                                       TOTAL-FORCE (eV/Angst)
 -----------------------------------------------------------------------------------
      0.00000      0.00000      0.00000        -0.000000      0.000000     -0.000000
 -----------------------------------------------------------------------------------
    total drift:                               -0.000000     -0.000000     -0.000000


--------------------------------------------------------------------------------------------------------



  FREE ENERGIE OF THE ION-ELECTRON SYSTEM (eV)
  ---------------------------------------------------
  free  energy   TOTEN  =        -7.70883731 eV

  energy  without entropy=       -7.70883731  energy(sigma->0) =       -7.70883731



--------------------------------------------------------------------------------------------------------


    POTLOK:  cpu time    0.0049: real time    0.0049


--------------------------------------------------------------------------------------------------------


 stress matrix after NEB project (eV)
     -1.42983     -0.00000     -0.00000
     -0.00000     -1.42983     -0.00000
     -0.00000     -0.00000     -1.42983
  FORCES: max atom, RMS     0.000000    0.000000
  FORCE total and by dimension    0.000000    0.000000
  Stress total and by dimension    2.476536    1.429829
     LOOP+:  cpu time    0.8620: real time    0.8708
    4ORBIT:  cpu time    0.0000: real time    0.0000
 BZINTS: Fermi energy:  5.780743;  8.000000 electrons
         Band energy:  28.635900;  BLOECHL correction: -0.060809

 total amount of memory used by VASP MPI-rank0    30789. kBytes
=======================================================================

   base      :      30000. kBytes
   nonl-proj :        180. kBytes
   fftplans  :        147. kBytes
   grid      :        221. kBytes
   one-center:         15. kBytes
   wavefun   :        226. kBytes

  
  
 General timing and accounting informations for this job:
 ========================================================
  
                  Total CPU time used (sec):        1.087
                            User time (sec):        0.987
                          System time (sec):        0.100
                         Elapsed time (sec):        1.285
  
                   Maximum memory used (kb):       97632.
                   Average memory used (kb):           0.
  
                          Minor page faults:         3928
                          Major page faults:            0
                 Voluntary context switches:          844
