<?xml version="1.0" encoding="ISO-8859-1"?>
<modeling>
 <generator>
  <i name="program" type="string">vasp </i>
  <i name="version" type="string">5.4.4.18Apr17-6-g9f103f2a35  </i>
  <i name="subversion" type="string">(build Feb  5 2022 00:56:52) complex            parallel </i>
  <i name="platform" type="string">LinuxGNU </i>
  <i name="date" type="string">2022 02 10 </i>
  <i name="time" type="string">18:01:59 </i>
 </generator>
 <incar>
  <i type="string" name="PREC">low</i>
  <i type="int" name="IBRION">     2</i>
  <i name="EDIFF">      0.00200000</i>
  <i name="EDIFFG">     -0.20000000</i>
  <i type="int" name="NSW">    75</i>
  <i type="int" name="ISIF">     4</i>
  <i name="POTIM">      0.02000000</i>
  <i type="int" name="ISMEAR">     1</i>
  <i name="SIGMA">      0.10000000</i>
  <i name="KSPACING">      0.75000000</i>
  <i type="logical" name="LWAVE"> F  </i>
  <i type="logical" name="LCHARG"> F  </i>
  <v type="int" name="KPOINT_BSE">    -1     0     0     0</v>
 </incar>
 <structure name="primitive_cell" >
  <crystal>
   <varray name="basis" >
    <v>       2.31889200       0.00000000      -0.81985200 </v>
    <v>      -1.15944600       2.00822000      -0.81985200 </v>
    <v>       0.00000000       0.00000000       2.45955700 </v>
   </varray>
   <i name="volume">     11.45377644 </i>
   <varray name="rec_basis" >
    <v>       0.43124044       0.24897671      -0.00000000 </v>
    <v>      -0.00000000       0.49795341       0.00000000 </v>
    <v>       0.14374675       0.24897660       0.40657728 </v>
   </varray>
  </crystal>
  <varray name="positions" >
   <v>       0.00000000       0.00000000       0.00000000 </v>
  </varray>
 </structure>
 <varray name="primitive_index" >
  <v type="int" >        1 </v>
 </varray>
 <kpoints>
  <generation param="Gamma">
   <v type="int" name="divisions">       5        5        5 </v>
   <v name="usershift">      0.00000000       0.00000000       0.00000000 </v>
   <v name="genvec1">      0.20000000      -0.00000000       0.00000000 </v>
   <v name="genvec2">      0.00000000       0.20000000       0.00000000 </v>
   <v name="genvec3">      0.00000000      -0.00000000       0.20000000 </v>
   <v name="shift">      0.00000000       0.00000000       0.00000000 </v>
  </generation>
  <varray name="kpointlist" >
   <v>       0.00000000       0.00000000       0.00000000 </v>
   <v>       0.20000000       0.00000000       0.00000000 </v>
   <v>       0.40000000       0.00000000       0.00000000 </v>
   <v>       0.20000000       0.20000000       0.00000000 </v>
   <v>       0.40000000       0.20000000       0.00000000 </v>
   <v>       0.20000000       0.20000000       0.20000000 </v>
   <v>      -0.20000000       0.20000000       0.20000000 </v>
   <v>      -0.40000000       0.40000000       0.20000000 </v>
   <v>      -0.40000000      -0.40000000       0.20000000 </v>
   <v>      -0.40000000       0.40000000       0.40000000 </v>
  </varray>
  <varray name="weights" >
   <v>       0.00800000 </v>
   <v>       0.09600000 </v>
   <v>       0.09600000 </v>
   <v>       0.19200000 </v>
   <v>       0.19200000 </v>
   <v>       0.06400000 </v>
   <v>       0.04800000 </v>
   <v>       0.19200000 </v>
   <v>       0.06400000 </v>
   <v>       0.04800000 </v>
  </varray>
 </kpoints>
 <parameters>
  <separator name="general" >
   <i type="string" name="SYSTEM">unknown system</i>
   <i type="logical" name="LCOMPAT"> F  </i>
  </separator>
  <separator name="electronic" >
   <i type="string" name="PREC">low</i>
   <i name="ENMAX">    200.91100000</i>
   <i name="ENAUG">    511.36800000</i>
   <i name="EDIFF">      0.00200000</i>
   <i type="int" name="IALGO">    38</i>
   <i type="int" name="IWAVPR">    11</i>
   <i type="int" name="NBANDS">     8</i>
   <i name="NELECT">      8.00000000</i>
   <i type="int" name="TURBO">     0</i>
   <i type="int" name="IRESTART">     0</i>
   <i type="int" name="NREBOOT">     0</i>
   <i type="int" name="NMIN">     0</i>
   <i name="EREF">      0.00000000</i>
   <separator name="electronic smearing" >
    <i type="int" name="ISMEAR">     1</i>
    <i name="SIGMA">      0.10000000</i>
    <i name="KSPACING">      0.75000000</i>
    <i type="logical" name="KGAMMA"> T  </i>
   </separator>
   <separator name="electronic projectors" >
    <i type="logical" name="LREAL"> F  </i>
    <v name="ROPT">      0.00000000</v>
    <i type="int" name="LMAXPAW">  -100</i>
    <i type="int" name="LMAXMIX">     2</i>
    <i type="logical" name="NLSPLINE"> F  </i>
   </separator>
   <separator name="electronic startup" >
    <i type="int" name="ISTART">     0</i>
    <i type="int" name="ICHARG">     2</i>
    <i type="int" name="INIWAV">     1</i>
   </separator>
   <separator name="electronic spin" >
    <i type="int" name="ISPIN">     1</i>
    <i type="logical" name="LNONCOLLINEAR"> F  </i>
    <v name="MAGMOM">      1.00000000</v>
    <i name="NUPDOWN">     -1.00000000</i>
    <i type="logical" name="LSORBIT"> F  </i>
    <v name="SAXIS">      0.00000000      0.00000000      1.00000000</v>
    <i type="logical" name="LSPIRAL"> F  </i>
    <v name="QSPIRAL">      0.00000000      0.00000000      0.00000000</v>
    <i type="logical" name="LZEROZ"> F  </i>
   </separator>
   <separator name="electronic exchange-correlation" >
    <i type="logical" name="LASPH"> F  </i>
    <i type="logical" name="LMETAGGA"> F  </i>
   </separator>
   <separator name="electronic convergence" >
    <i type="int" name="NELM">    60</i>
    <i type="int" name="NELMDL">    -5</i>
    <i type="int" name="NELMIN">     2</i>
    <i name="ENINI">    200.91100000</i>
    <separator name="electronic convergence detail" >
     <i type="logical" name="LDIAG"> T  </i>
     <i type="logical" name="LSUBROT"> F  </i>
     <i name="WEIMIN">      0.00100000</i>
     <i name="EBREAK">      0.00006250</i>
     <i name="DEPER">      0.30000000</i>
     <i type="int" name="NRMM">     4</i>
     <i name="TIME">      0.40000000</i>
    </separator>
   </separator>
   <separator name="electronic mixer" >
    <i name="AMIX">      0.40000000</i>
    <i name="BMIX">      1.00000000</i>
    <i name="AMIN">      0.10000000</i>
    <i name="AMIX_MAG">      1.60000000</i>
    <i name="BMIX_MAG">      1.00000000</i>
    <separator name="electronic mixer details" >
     <i type="int" name="IMIX">     4</i>
     <i type="logical" name="MIXFIRST"> F  </i>
     <i type="int" name="MAXMIX">   -45</i>
     <i name="WC">    100.00000000</i>
     <i type="int" name="INIMIX">     1</i>
     <i type="int" name="MIXPRE">     1</i>
     <i type="int" name="MREMOVE">     5</i>
    </separator>
   </separator>
   <separator name="electronic dipolcorrection" >
    <i type="logical" name="LDIPOL"> F  </i>
    <i type="logical" name="LMONO"> F  </i>
    <i type="int" name="IDIPOL">     0</i>
    <i name="EPSILON">      1.00000000</i>
    <v name="DIPOL">   -100.00000000   -100.00000000   -100.00000000</v>
    <i name="EFIELD">      0.00000000</i>
   </separator>
  </separator>
  <separator name="grids" >
   <i type="int" name="NGX">    10</i>
   <i type="int" name="NGY">    10</i>
   <i type="int" name="NGZ">    10</i>
   <i type="int" name="NGXF">    14</i>
   <i type="int" name="NGYF">    14</i>
   <i type="int" name="NGZF">    14</i>
   <i type="logical" name="ADDGRID"> F  </i>
  </separator>
  <separator name="ionic" >
   <i type="int" name="NSW">    75</i>
   <i type="int" name="IBRION">     2</i>
   <i type="int" name="MDALGO">     0</i>
   <i type="int" name="ISIF">     4</i>
   <i name="PSTRESS">      0.00000000</i>
   <i name="EDIFFG">     -0.20000000</i>
   <i type="int" name="NFREE">     1</i>
   <i name="POTIM">      0.02000000</i>
   <i name="SMASS">     -3.00000000</i>
   <i name="SCALEE">      1.00000000</i>
  </separator>
  <separator name="ionic md" >
   <i name="TEBEG">      0.00010000</i>
   <i name="TEEND">      0.00010000</i>
   <i type="int" name="NBLOCK">     1</i>
   <i type="int" name="KBLOCK">    75</i>
   <i type="int" name="NPACO">   256</i>
   <i name="APACO">     16.00000000</i>
  </separator>
  <separator name="symmetry" >
   <i type="int" name="ISYM">     2</i>
   <i name="SYMPREC">      0.00001000</i>
  </separator>
  <separator name="dos" >
   <i type="int" name="LORBIT">     0</i>
   <v name="RWIGS">     -1.00000000</v>
   <i type="int" name="NEDOS">   301</i>
   <i name="EMIN">     10.00000000</i>
   <i name="EMAX">    -10.00000000</i>
   <i name="EFERMI">      0.00000000</i>
  </separator>
  <separator name="writing" >
   <i type="int" name="NWRITE">     2</i>
   <i type="logical" name="LWAVE"> F  </i>
   <i type="logical" name="LDOWNSAMPLE"> F  </i>
   <i type="logical" name="LCHARG"> F  </i>
   <i type="logical" name="LPARD"> F  </i>
   <i type="logical" name="LVTOT"> F  </i>
   <i type="logical" name="LVHAR"> F  </i>
   <i type="logical" name="LELF"> F  </i>
   <i type="logical" name="LOPTICS"> F  </i>
   <v name="STM">      0.00000000      0.00000000      0.00000000      0.00000000      0.00000000      0.00000000      0.00000000</v>
  </separator>
  <separator name="performance" >
   <i type="int" name="NPAR">     1</i>
   <i type="int" name="NSIM">     4</i>
   <i type="int" name="NBLK">    -1</i>
   <i type="logical" name="LPLANE"> T  </i>
   <i type="logical" name="LSCALAPACK"> T  </i>
   <i type="logical" name="LSCAAWARE"> F  </i>
   <i type="logical" name="LSCALU"> F  </i>
   <i type="logical" name="LASYNC"> F  </i>
   <i type="logical" name="LORBITALREAL"> F  </i>
  </separator>
  <separator name="miscellaneous" >
   <i type="int" name="IDIOT">     3</i>
   <i type="int" name="ISPECIAL">     0</i>
   <i type="logical" name="LMUSIC"> F  </i>
   <v name="POMASS">     55.84700000</v>
   <v name="DARWINR">      0.00000000</v>
   <v name="DARWINV">      1.00000000</v>
   <i type="logical" name="LCORR"> T  </i>
  </separator>
  <i type="logical" name="GGA_COMPAT"> T  </i>
  <i type="logical" name="LBERRY"> F  </i>
  <i type="int" name="ICORELEVEL">     0</i>
  <i type="logical" name="LDAU"> F  </i>
  <i type="int" name="I_CONSTRAINED_M">     0</i>
  <separator name="electronic exchange-correlation" >
   <i type="string" name="GGA">--</i>
   <i type="int" name="VOSKOWN">     0</i>
   <i type="logical" name="LHFCALC"> F  </i>
   <i type="string" name="PRECFOCK"></i>
   <i type="logical" name="LSYMGRAD"> F  </i>
   <i type="logical" name="LHFONE"> F  </i>
   <i type="logical" name="LRHFCALC"> F  </i>
   <i type="logical" name="LTHOMAS"> F  </i>
   <i type="logical" name="LMODELHF"> F  </i>
   <i name="ENCUT4O">     -1.00000000</i>
   <i type="int" name="EXXOEP">     0</i>
   <i type="int" name="FOURORBIT">     0</i>
   <i name="AEXX">      0.00000000</i>
   <i name="HFALPHA">      0.00000000</i>
   <i name="MCALPHA">      0.00000000</i>
   <i name="ALDAX">      1.00000000</i>
   <i name="AGGAX">      1.00000000</i>
   <i name="ALDAC">      1.00000000</i>
   <i name="AGGAC">      1.00000000</i>
   <i type="int" name="NKREDX">     1</i>
   <i type="int" name="NKREDY">     1</i>
   <i type="int" name="NKREDZ">     1</i>
   <i type="logical" name="SHIFTRED"> F  </i>
   <i type="logical" name="ODDONLY"> F  </i>
   <i type="logical" name="EVENONLY"> F  </i>
   <i type="int" name="LMAXFOCK">     0</i>
   <i type="int" name="NMAXFOCKAE">     0</i>
   <i type="logical" name="LFOCKAEDFT"> F  </i>
   <i name="HFSCREEN">      0.00000000</i>
   <i name="HFSCREENC">      0.00000000</i>
   <i type="int" name="NBANDSGWLOW">     0</i>
  </separator>
  <separator name="vdW DFT" >
   <i type="logical" name="LUSE_VDW"> F  </i>
   <i name="Zab_VDW">     -0.84910000</i>
   <i name="PARAM1">      0.12340000</i>
   <i name="PARAM2">      1.00000000</i>
   <i name="PARAM3">      0.00000000</i>
  </separator>
  <separator name="model GW" >
   <i type="int" name="MODEL_GW">     0</i>
   <i name="MODEL_EPS0">      6.87226586</i>
   <i name="MODEL_ALPHA">      1.00000000</i>
  </separator>
  <separator name="linear response parameters" >
   <i type="logical" name="LEPSILON"> F  </i>
   <i type="logical" name="LRPA"> F  </i>
   <i type="logical" name="LNABLA"> F  </i>
   <i type="logical" name="LVEL"> F  </i>
   <i type="int" name="KINTER">     0</i>
   <i name="CSHIFT">      0.10000000</i>
   <i name="OMEGAMAX">     -1.00000000</i>
   <i name="DEG_THRESHOLD">      0.00200000</i>
   <i name="RTIME">     -0.10000000</i>
   <i name="WPLASMAI">      0.00000000</i>
   <v name="DFIELD">      0.00000000      0.00000000      0.00000000</v>
   <v name="WPLASMA">      0.00000000      0.00000000      0.00000000      0.00000000      0.00000000      0.00000000      0.00000000      0.00000000      0.00000000</v>
  </separator>
  <separator name="orbital magnetization" >
   <i type="logical" name="NUCIND"> F  </i>
   <v name="MAGPOS">      0.00000000      0.00000000      0.00000000</v>
   <i type="logical" name="LNICSALL"> T  </i>
   <i type="logical" name="ORBITALMAG"> F  </i>
   <i type="logical" name="LMAGBLOCH"> F  </i>
   <i type="logical" name="LCHIMAG"> F  </i>
   <i type="logical" name="LGAUGE"> T  </i>
   <i type="int" name="MAGATOM">     0</i>
   <v name="MAGDIPOL">      0.00000000      0.00000000      0.00000000</v>
   <v name="AVECCONST">      0.00000000      0.00000000      0.00000000</v>
  </separator>
  <separator name="response functions" >
   <i type="logical" name="LADDER"> F  </i>
   <i type="logical" name="LRPAFORCE"> F  </i>
   <i type="logical" name="LFXC"> F  </i>
   <i type="logical" name="LHARTREE"> T  </i>
   <i type="int" name="IBSE">     0</i>
   <v type="int" name="KPOINT">    -1     0     0     0</v>
   <i type="logical" name="LTCTE"> F  </i>
   <i type="logical" name="LTETE"> F  </i>
   <i type="logical" name="LTRIPLET"> F  </i>
   <i type="logical" name="LFXCEPS"> F  </i>
   <i type="logical" name="LFXHEG"> F  </i>
   <i type="int" name="NATURALO">     2</i>
   <i type="logical" name="L2ORDER"> F  </i>
   <i type="logical" name="LMP2LT"> F  </i>
   <i type="logical" name="LUSEW"> F  </i>
   <i name="ENCUTGW">     -2.00000000</i>
   <i name="ENCUTGWSOFT">     -2.00000000</i>
   <i name="ENCUTLF">     -1.00000000</i>
   <i type="int" name="LMAXMP2">    -1</i>
   <i name="SCISSOR">      0.00000000</i>
   <i type="int" name="NOMEGA">     0</i>
   <i type="int" name="NOMEGAR">     0</i>
   <i type="int" name="NBANDSGW">    -1</i>
   <i type="int" name="NBANDSO">    -1</i>
   <i type="int" name="NBANDSV">    -1</i>
   <i type="int" name="NELM">     1</i>
   <i type="int" name="NELMHF">     1</i>
   <i type="int" name="DIM">     3</i>
   <i type="int" name="ANTIRES">     0</i>
   <i name="OMEGAMAX">    -30.00000000</i>
   <i name="OMEGAMIN">    -30.00000000</i>
   <i name="OMEGATL">   -200.00000000</i>
   <i type="int" name="OMEGAGRID">   140</i>
   <i name="CSHIFT">     -0.10000000</i>
   <i type="logical" name="SELFENERGY"> F  </i>
   <i type="logical" name="LSPECTRAL"> F  </i>
   <i type="logical" name="LSPECTRALGW"> F  </i>
   <i type="logical" name="LSINGLES"> F  </i>
   <i type="logical" name="LFERMIGW"> F  </i>
   <i type="logical" name="ODDONLYGW"> F  </i>
   <i type="logical" name="EVENONLYGW"> F  </i>
   <i type="int" name="NKREDLFX">     1</i>
   <i type="int" name="NKREDLFY">     1</i>
   <i type="int" name="NKREDLFZ">     1</i>
   <i type="int" name="MAXMEM">  2800</i>
   <i type="int" name="TELESCOPE">     0</i>
   <i type="int" name="TAUPAR">     1</i>
   <i type="int" name="OMEGAPAR">    -1</i>
   <i name="LAMBDA">      1.00000000</i>
  </separator>
  <separator name="External order field" >
   <i name="OFIELD_KAPPA">      0.00000000</i>
   <v name="OFIELD_K">      0.00000000      0.00000000      0.00000000</v>
   <i name="OFIELD_Q6_NEAR">      0.00000000</i>
   <i name="OFIELD_Q6_FAR">      0.00000000</i>
   <i name="OFIELD_A">      0.00000000</i>
  </separator>
 </parameters>
 <atominfo>
  <atoms>       1 </atoms>
  <types>       1 </types>
  <array name="atoms" >
   <dimension dim="1">ion</dimension>
   <field type="string">element</field>
   <field type="int">atomtype</field>
   <set>
    <rc><c>Fe</c><c>   1</c></rc>
   </set>
  </array>
  <array name="atomtypes" >
   <dimension dim="1">type</dimension>
   <field type="int">atomspertype</field>
   <field type="string">element</field>
   <field>mass</field>
   <field>valence</field>
   <field type="string">pseudopotential</field>
   <set>
    <rc><c>   1</c><c>Fe</c><c>     55.84700000</c><c>      8.00000000</c><c>  PAW_PBE Fe 06Sep2000                  </c></rc>
   </set>
  </array>
 </atominfo>
 <structure name="initialpos" >
  <crystal>
   <varray name="basis" >
    <v>       2.31889200       0.00000000      -0.81985200 </v>
    <v>      -1.15944600       2.00822000      -0.81985200 </v>
    <v>       0.00000000       0.00000000       2.45955700 </v>
   </varray>
   <i name="volume">     11.45377644 </i>
   <varray name="rec_basis" >
    <v>       0.43124044       0.24897671      -0.00000000 </v>
    <v>      -0.00000000       0.49795341       0.00000000 </v>
    <v>       0.14374675       0.24897660       0.40657728 </v>
   </varray>
  </crystal>
  <varray name="positions" >
   <v>       0.00000000       0.00000000       0.00000000 </v>
  </varray>
 </structure>
 <calculation>
  <scstep>
   <time name="dav">    0.01    0.01</time>
   <time name="total">    0.01    0.01</time>
   <energy>
    <i name="alphaZ">     60.34147461 </i>
    <i name="ewald">   -590.45898340 </i>
    <i name="hartreedc">   -112.16278505 </i>
    <i name="XCdc">      3.88667738 </i>
    <i name="pawpsdc">    554.84585341 </i>
    <i name="pawaedc">   -562.54823633 </i>
    <i name="eentropy">      0.00084228 </i>
    <i name="bandstr">     52.32775619 </i>
    <i name="atom">    593.67331535 </i>
    <i name="e_fr_energy">     -0.09408556 </i>
    <i name="e_wo_entrp">     -0.09492784 </i>
    <i name="e_0_energy">     -0.09436632 </i>
   </energy>
  </scstep>
  <scstep>
   <time name="dav">    0.00    0.00</time>
   <time name="total">    0.00    0.01</time>
   <energy>
    <i name="e_fr_energy">     -9.19229146 </i>
    <i name="e_wo_entrp">     -9.19300731 </i>
    <i name="e_0_energy">     -9.19253008 </i>
   </energy>
  </scstep>
  <scstep>
   <time name="dav">    0.01    0.01</time>
   <time name="total">    0.01    0.01</time>
   <energy>
    <i name="e_fr_energy">     -9.22443023 </i>
    <i name="e_wo_entrp">     -9.22540051 </i>
    <i name="e_0_energy">     -9.22475365 </i>
   </energy>
  </scstep>
  <scstep>
   <time name="dav">    0.00    0.00</time>
   <time name="total">    0.00    0.00</time>
   <energy>
    <i name="e_fr_energy">     -9.22447457 </i>
    <i name="e_wo_entrp">     -9.22544493 </i>
    <i name="e_0_energy">     -9.22479802 </i>
   </energy>
  </scstep>
  <scstep>
   <time name="dav">    0.00    0.00</time>
   <time name="total">    0.00    0.00</time>
   <energy>
    <i name="e_fr_energy">     -9.22447517 </i>
    <i name="e_wo_entrp">     -9.22544553 </i>
    <i name="e_0_energy">     -9.22479863 </i>
   </energy>
  </scstep>
  <scstep>
   <time name="dav">    0.00    0.00</time>
   <time name="total">    0.01    0.01</time>
   <energy>
    <i name="e_fr_energy">     -7.31513896 </i>
    <i name="e_wo_entrp">     -7.30940975 </i>
    <i name="e_0_energy">     -7.31322922 </i>
   </energy>
  </scstep>
  <scstep>
   <time name="dav">    0.00    0.00</time>
   <time name="total">    0.01    0.01</time>
   <energy>
    <i name="e_fr_energy">     -7.24358995 </i>
    <i name="e_wo_entrp">     -7.24275753 </i>
    <i name="e_0_energy">     -7.24331248 </i>
   </energy>
  </scstep>
  <scstep>
   <time name="dav">    0.00    0.00</time>
   <time name="total">    0.01    0.01</time>
   <energy>
    <i name="e_fr_energy">     -7.23974418 </i>
    <i name="e_wo_entrp">     -7.23907393 </i>
    <i name="e_0_energy">     -7.23952076 </i>
   </energy>
  </scstep>
  <scstep>
   <time name="dav">    0.00    0.00</time>
   <time name="total">    0.01    0.01</time>
   <energy>
    <i name="e_fr_energy">     -7.23313414 </i>
    <i name="e_wo_entrp">     -7.23247155 </i>
    <i name="e_0_energy">     -7.23291328 </i>
   </energy>
  </scstep>
  <scstep>
   <time name="dav">    0.00    0.00</time>
   <time name="total">    0.00    0.00</time>
   <energy>
    <i name="alphaZ">     60.34147461 </i>
    <i name="ewald">   -590.45898340 </i>
    <i name="hartreedc">    -93.95198302 </i>
    <i name="XCdc">      2.98678851 </i>
    <i name="pawpsdc">    690.50454385 </i>
    <i name="pawaedc">   -697.02827501 </i>
    <i name="eentropy">     -0.00066577 </i>
    <i name="bandstr">     26.70061121 </i>
    <i name="atom">    593.67331535 </i>
    <i name="e_fr_energy">     -7.23317368 </i>
    <i name="e_wo_entrp">     -7.23250791 </i>
    <i name="e_0_energy">     -7.23295176 </i>
   </energy>
  </scstep>
  <structure>
   <crystal>
    <varray name="basis" >
     <v>       2.31889200       0.00000000      -0.81985200 </v>
     <v>      -1.15944600       2.00822000      -0.81985200 </v>
     <v>       0.00000000       0.00000000       2.45955700 </v>
    </varray>
    <i name="volume">     11.45377644 </i>
    <varray name="rec_basis" >
     <v>       0.43124044       0.24897671      -0.00000000 </v>
     <v>      -0.00000000       0.49795341       0.00000000 </v>
     <v>       0.14374675       0.24897660       0.40657728 </v>
    </varray>
   </crystal>
   <varray name="positions" >
    <v>       0.00000000       0.00000000       0.00000000 </v>
   </varray>
  </structure>
  <varray name="forces" >
   <v>      -0.00000000      -0.00000000       0.00000000 </v>
  </varray>
  <varray name="stress" >
   <v>   -1254.28043601      -0.00000000      -0.00018030 </v>
   <v>      -0.00000000   -1254.28120969      -0.00031229 </v>
   <v>      -0.00018030      -0.00031229   -1254.28106117 </v>
  </varray>
  <energy>
   <i name="e_fr_energy">     -7.23317368 </i>
   <i name="e_wo_entrp">     -7.23295176 </i>
   <i name="e_0_energy">     -0.00066577 </i>
  </energy>
  <time name="totalsc">    0.07    0.08</time>
  <eigenvalues>
   <array>
    <dimension dim="1">band</dimension>
    <dimension dim="2">kpoint</dimension>
    <dimension dim="3">spin</dimension>
    <field>eigene</field>
    <field>occ</field>
    <set>
     <set comment="spin 1">
      <set comment="kpoint 1">
       <r>   -2.5963    1.0000 </r>
       <r>    3.8531    1.0000 </r>
       <r>    3.8531    1.0000 </r>
       <r>    3.8533    1.0000 </r>
       <r>    5.2497    1.0000 </r>
       <r>    5.2497    1.0000 </r>
       <r>   30.6446    0.0000 </r>
       <r>   30.6446    0.0000 </r>
      </set>
      <set comment="kpoint 2">
       <r>   -1.0544    1.0000 </r>
       <r>    3.4863    1.0000 </r>
       <r>    3.7981    1.0000 </r>
       <r>    4.6809    1.0000 </r>
       <r>    5.0995    1.0000 </r>
       <r>    5.5874    0.3595 </r>
       <r>   24.0832    0.0000 </r>
       <r>   28.0880    0.0000 </r>
      </set>
      <set comment="kpoint 3">
       <r>    1.1081    1.0000 </r>
       <r>    2.9242    1.0000 </r>
       <r>    5.0186    1.0000 </r>
       <r>    5.4404    1.0346 </r>
       <r>    5.6167    0.1519 </r>
       <r>    6.3906   -0.0000 </r>
       <r>   15.3719    0.0000 </r>
       <r>   24.5583    0.0000 </r>
      </set>
      <set comment="kpoint 4">
       <r>    1.1970    1.0000 </r>
       <r>    3.1571    1.0000 </r>
       <r>    3.3438    1.0000 </r>
       <r>    5.0636    1.0000 </r>
       <r>    5.7205   -0.0277 </r>
       <r>    6.5534   -0.0000 </r>
       <r>   19.8908    0.0000 </r>
       <r>   20.6170    0.0000 </r>
      </set>
      <set comment="kpoint 5">
       <r>    1.8989    1.0000 </r>
       <r>    2.9346    1.0000 </r>
       <r>    3.8557    1.0000 </r>
       <r>    5.3416    1.0028 </r>
       <r>    5.8184   -0.0013 </r>
       <r>    9.8030    0.0000 </r>
       <r>   13.5270    0.0000 </r>
       <r>   18.6606    0.0000 </r>
      </set>
      <set comment="kpoint 6">
       <r>    2.8075    1.0000 </r>
       <r>    2.8075    1.0000 </r>
       <r>    2.9136    1.0000 </r>
       <r>    5.6161    0.1553 </r>
       <r>    5.6161    0.1553 </r>
       <r>   10.2922    0.0000 </r>
       <r>   17.0433    0.0000 </r>
       <r>   17.0433    0.0000 </r>
      </set>
      <set comment="kpoint 7">
       <r>    0.2670    1.0000 </r>
       <r>    4.0288    1.0000 </r>
       <r>    4.1117    1.0000 </r>
       <r>    4.1118    1.0000 </r>
       <r>    4.6307    1.0000 </r>
       <r>    5.9706   -0.0000 </r>
       <r>   24.5584    0.0000 </r>
       <r>   25.3804    0.0000 </r>
      </set>
      <set comment="kpoint 8">
       <r>    1.9593    1.0000 </r>
       <r>    3.1055    1.0000 </r>
       <r>    3.9872    1.0000 </r>
       <r>    4.8745    1.0000 </r>
       <r>    6.2899   -0.0000 </r>
       <r>    8.2536   -0.0000 </r>
       <r>   16.3176    0.0000 </r>
       <r>   21.6787    0.0000 </r>
      </set>
      <set comment="kpoint 9">
       <r>    2.3652    1.0000 </r>
       <r>    2.3652    1.0000 </r>
       <r>    3.8634    1.0000 </r>
       <r>    5.8406   -0.0005 </r>
       <r>    5.8411   -0.0004 </r>
       <r>   13.5064    0.0000 </r>
       <r>   13.5065    0.0000 </r>
       <r>   15.5403    0.0000 </r>
      </set>
      <set comment="kpoint 10">
       <r>    1.7522    1.0000 </r>
       <r>    1.8416    1.0000 </r>
       <r>    5.6823   -0.0334 </r>
       <r>    5.6827   -0.0336 </r>
       <r>    6.0258   -0.0000 </r>
       <r>   12.0118    0.0000 </r>
       <r>   17.1834    0.0000 </r>
       <r>   17.1836    0.0000 </r>
      </set>
     </set>
    </set>
   </array>
  </eigenvalues>
  <separator name="orbital magnetization" >
   <v name="MAGDIPOLOUT">      0.00000000      0.00000000      0.00000000</v>
  </separator>
  <dos>
   <i name="efermi">      5.57055158 </i>
   <total>
    <array>
     <dimension dim="1">gridpoints</dimension>
     <dimension dim="2">spin</dimension>
     <field>energy</field>
     <field>total</field>
     <field>integrated</field>
     <set>
      <set comment="spin 1">
       <r>    -4.2583     0.0000     0.0000 </r>
       <r>    -4.1365     0.0000     0.0000 </r>
       <r>    -4.0146     0.0000     0.0000 </r>
       <r>    -3.8927     0.0000     0.0000 </r>
       <r>    -3.7708     0.0000     0.0000 </r>
       <r>    -3.6489     0.0000     0.0000 </r>
       <r>    -3.5270     0.0000     0.0000 </r>
       <r>    -3.4052    -0.0000    -0.0000 </r>
       <r>    -3.2833    -0.0000    -0.0000 </r>
       <r>    -3.1614    -0.0000    -0.0000 </r>
       <r>    -3.0395    -0.0000    -0.0000 </r>
       <r>    -2.9176    -0.0000    -0.0000 </r>
       <r>    -2.7957    -0.0011    -0.0001 </r>
       <r>    -2.6739     0.0032     0.0003 </r>
       <r>    -2.5520     0.1078     0.0134 </r>
       <r>    -2.4301     0.0240     0.0163 </r>
       <r>    -2.3082    -0.0026     0.0160 </r>
       <r>    -2.1863    -0.0000     0.0160 </r>
       <r>    -2.0644    -0.0000     0.0160 </r>
       <r>    -1.9426    -0.0000     0.0160 </r>
       <r>    -1.8207    -0.0000     0.0160 </r>
       <r>    -1.6988    -0.0000     0.0160 </r>
       <r>    -1.5769    -0.0000     0.0160 </r>
       <r>    -1.4550    -0.0000     0.0160 </r>
       <r>    -1.3331    -0.0005     0.0159 </r>
       <r>    -1.2113    -0.0382     0.0113 </r>
       <r>    -1.0894     0.3899     0.0588 </r>
       <r>    -0.9675     1.2329     0.2091 </r>
       <r>    -0.8456     0.0005     0.2091 </r>
       <r>    -0.7237    -0.0094     0.2080 </r>
       <r>    -0.6018    -0.0000     0.2080 </r>
       <r>    -0.4800    -0.0000     0.2080 </r>
       <r>    -0.3581    -0.0000     0.2080 </r>
       <r>    -0.2362    -0.0000     0.2080 </r>
       <r>    -0.1143    -0.0000     0.2080 </r>
       <r>     0.0076    -0.0006     0.2079 </r>
       <r>     0.1295    -0.0251     0.2049 </r>
       <r>     0.2513     0.3168     0.2435 </r>
       <r>     0.3732     0.5205     0.3069 </r>
       <r>     0.4951    -0.0217     0.3043 </r>
       <r>     0.6170    -0.0023     0.3040 </r>
       <r>     0.7389    -0.0000     0.3040 </r>
       <r>     0.8608    -0.0021     0.3037 </r>
       <r>     0.9826    -0.0690     0.2953 </r>
       <r>     1.1045     0.7626     0.3883 </r>
       <r>     1.2264     3.2612     0.7858 </r>
       <r>     1.3483     0.8613     0.8907 </r>
       <r>     1.4702    -0.0871     0.8801 </r>
       <r>     1.5921    -0.0203     0.8777 </r>
       <r>     1.7139     0.1060     0.8906 </r>
       <r>     1.8358     1.1543     1.0313 </r>
       <r>     1.9577     4.7815     1.6140 </r>
       <r>     2.0796     2.0111     1.8592 </r>
       <r>     2.2015    -0.1966     1.8352 </r>
       <r>     2.3234     0.4132     1.8856 </r>
       <r>     2.4452     1.7060     2.0935 </r>
       <r>     2.5671     0.0328     2.0975 </r>
       <r>     2.6890    -0.0973     2.0856 </r>
       <r>     2.8109     1.0001     2.2075 </r>
       <r>     2.9328     4.3139     2.7333 </r>
       <r>     3.0547     3.1564     3.1180 </r>
       <r>     3.1765     4.5551     3.6732 </r>
       <r>     3.2984     1.8411     3.8976 </r>
       <r>     3.4203     2.5738     4.2113 </r>
       <r>     3.5422     1.4167     4.3840 </r>
       <r>     3.6641     0.0568     4.3909 </r>
       <r>     3.7860     0.8429     4.4936 </r>
       <r>     3.9078     4.8655     5.0867 </r>
       <r>     4.0297     3.6310     5.5292 </r>
       <r>     4.1516     2.2131     5.7990 </r>
       <r>     4.2735     0.2423     5.8285 </r>
       <r>     4.3954    -0.0385     5.8238 </r>
       <r>     4.5173    -0.0588     5.8166 </r>
       <r>     4.6391     0.7849     5.9123 </r>
       <r>     4.7610     1.5417     6.1002 </r>
       <r>     4.8829     1.8028     6.3199 </r>
       <r>     5.0048     2.3982     6.6122 </r>
       <r>     5.1267     4.7257     7.1882 </r>
       <r>     5.2486     0.7711     7.2822 </r>
       <r>     5.3704     2.4849     7.5851 </r>
       <r>     5.4923     2.0657     7.8369 </r>
       <r>     5.6142     3.1665     8.2228 </r>
       <r>     5.7361     5.8845     8.9400 </r>
       <r>     5.8580     5.2019     9.5740 </r>
       <r>     5.9799     1.9792     9.8153 </r>
       <r>     6.1017     0.8356     9.9171 </r>
       <r>     6.2236     0.1693     9.9377 </r>
       <r>     6.3455     2.9175    10.2933 </r>
       <r>     6.4674     1.6696    10.4968 </r>
       <r>     6.5893     2.4725    10.7982 </r>
       <r>     6.7112     0.7474    10.8893 </r>
       <r>     6.8330    -0.0752    10.8801 </r>
       <r>     6.9549    -0.0009    10.8800 </r>
       <r>     7.0768    -0.0000    10.8800 </r>
       <r>     7.1987    -0.0000    10.8800 </r>
       <r>     7.3206     0.0000    10.8800 </r>
       <r>     7.4425    -0.0000    10.8800 </r>
       <r>     7.5643    -0.0000    10.8800 </r>
       <r>     7.6862    -0.0000    10.8800 </r>
       <r>     7.8081    -0.0000    10.8800 </r>
       <r>     7.9300    -0.0001    10.8800 </r>
       <r>     8.0519    -0.0237    10.8771 </r>
       <r>     8.1737     0.0560    10.8839 </r>
       <r>     8.2956     2.5606    11.1960 </r>
       <r>     8.4175     0.6248    11.2722 </r>
       <r>     8.5394    -0.0664    11.2641 </r>
       <r>     8.6613    -0.0006    11.2640 </r>
       <r>     8.7832    -0.0000    11.2640 </r>
       <r>     8.9050    -0.0000    11.2640 </r>
       <r>     9.0269    -0.0000    11.2640 </r>
       <r>     9.1488    -0.0000    11.2640 </r>
       <r>     9.2707    -0.0000    11.2640 </r>
       <r>     9.3926    -0.0000    11.2640 </r>
       <r>     9.5145    -0.0006    11.2639 </r>
       <r>     9.6363    -0.0626    11.2563 </r>
       <r>     9.7582     0.5674    11.3255 </r>
       <r>     9.8801     2.5906    11.6412 </r>
       <r>    10.0020     0.0815    11.6511 </r>
       <r>    10.1239    -0.0460    11.6455 </r>
       <r>    10.2458     0.1775    11.6672 </r>
       <r>    10.3676     0.8690    11.7731 </r>
       <r>    10.4895     0.0330    11.7771 </r>
       <r>    10.6114    -0.0091    11.7760 </r>
       <r>    10.7333    -0.0000    11.7760 </r>
       <r>    10.8552    -0.0000    11.7760 </r>
       <r>    10.9771    -0.0000    11.7760 </r>
       <r>    11.0989    -0.0000    11.7760 </r>
       <r>    11.2208    -0.0000    11.7760 </r>
       <r>    11.3427    -0.0000    11.7760 </r>
       <r>    11.4646    -0.0000    11.7760 </r>
       <r>    11.5865    -0.0000    11.7760 </r>
       <r>    11.7084    -0.0001    11.7760 </r>
       <r>    11.8302    -0.0108    11.7747 </r>
       <r>    11.9521     0.0751    11.7838 </r>
       <r>    12.0740     0.6681    11.8652 </r>
       <r>    12.1959     0.0656    11.8732 </r>
       <r>    12.3178    -0.0101    11.8720 </r>
       <r>    12.4397    -0.0001    11.8720 </r>
       <r>    12.5615    -0.0000    11.8720 </r>
       <r>    12.6834    -0.0000    11.8720 </r>
       <r>    12.8053    -0.0000    11.8720 </r>
       <r>    12.9272    -0.0000    11.8720 </r>
       <r>    13.0491    -0.0000    11.8720 </r>
       <r>    13.1710    -0.0000    11.8720 </r>
       <r>    13.2928    -0.0177    11.8698 </r>
       <r>    13.4147    -0.1181    11.8554 </r>
       <r>    13.5366     3.5263    12.2852 </r>
       <r>    13.6585     2.0249    12.5320 </r>
       <r>    13.7804    -0.1604    12.5125 </r>
       <r>    13.9023    -0.0039    12.5120 </r>
       <r>    14.0241    -0.0000    12.5120 </r>
       <r>    14.1460    -0.0000    12.5120 </r>
       <r>    14.2679     0.0000    12.5120 </r>
       <r>    14.3898     0.0000    12.5120 </r>
       <r>    14.5117    -0.0000    12.5120 </r>
       <r>    14.6336    -0.0000    12.5120 </r>
       <r>    14.7554    -0.0000    12.5120 </r>
       <r>    14.8773    -0.0000    12.5120 </r>
       <r>    14.9992    -0.0000    12.5120 </r>
       <r>    15.1211    -0.0018    12.5118 </r>
       <r>    15.2430    -0.0533    12.5053 </r>
       <r>    15.3649     0.7315    12.5945 </r>
       <r>    15.4867     1.0694    12.7248 </r>
       <r>    15.6086     0.8342    12.8265 </r>
       <r>    15.7305     0.0567    12.8334 </r>
       <r>    15.8524    -0.0113    12.8320 </r>
       <r>    15.9743    -0.0001    12.8320 </r>
       <r>    16.0962    -0.0119    12.8306 </r>
       <r>    16.2180    -0.0657    12.8225 </r>
       <r>    16.3399     2.2331    13.0947 </r>
       <r>    16.4618     1.0899    13.2276 </r>
       <r>    16.5837    -0.0932    13.2162 </r>
       <r>    16.7056    -0.0017    13.2160 </r>
       <r>    16.8275    -0.0097    13.2148 </r>
       <r>    16.9493    -0.0310    13.2110 </r>
       <r>    17.0712     1.5132    13.3955 </r>
       <r>    17.1931     1.6012    13.5906 </r>
       <r>    17.3150     0.6571    13.6707 </r>
       <r>    17.4369    -0.0534    13.6642 </r>
       <r>    17.5588    -0.0016    13.6640 </r>
       <r>    17.6806    -0.0000    13.6640 </r>
       <r>    17.8025    -0.0000    13.6640 </r>
       <r>    17.9244    -0.0000    13.6640 </r>
       <r>    18.0463    -0.0000    13.6640 </r>
       <r>    18.1682    -0.0000    13.6640 </r>
       <r>    18.2901    -0.0000    13.6640 </r>
       <r>    18.4119    -0.0039    13.6635 </r>
       <r>    18.5338    -0.1070    13.6505 </r>
       <r>    18.6557     1.5558    13.8401 </r>
       <r>    18.7776     1.8158    14.0614 </r>
       <r>    18.8995    -0.1042    14.0487 </r>
       <r>    19.0214    -0.0059    14.0480 </r>
       <r>    19.1432    -0.0000    14.0480 </r>
       <r>    19.2651    -0.0000    14.0480 </r>
       <r>    19.3870    -0.0000    14.0480 </r>
       <r>    19.5089    -0.0000    14.0480 </r>
       <r>    19.6308    -0.0023    14.0477 </r>
       <r>    19.7527    -0.0999    14.0355 </r>
       <r>    19.8745     1.2513    14.1881 </r>
       <r>    19.9964     2.0961    14.4435 </r>
       <r>    20.1183    -0.0853    14.4331 </r>
       <r>    20.2402    -0.0094    14.4320 </r>
       <r>    20.3621    -0.0029    14.4316 </r>
       <r>    20.4840    -0.1041    14.4190 </r>
       <r>    20.6058     1.3865    14.5879 </r>
       <r>    20.7277     1.9749    14.8287 </r>
       <r>    20.8496    -0.0962    14.8169 </r>
       <r>    20.9715    -0.0077    14.8160 </r>
       <r>    21.0934    -0.0000    14.8160 </r>
       <r>    21.2153    -0.0000    14.8160 </r>
       <r>    21.3371    -0.0000    14.8160 </r>
       <r>    21.4590    -0.0127    14.8145 </r>
       <r>    21.5809    -0.0588    14.8073 </r>
       <r>    21.7028     2.2687    15.0838 </r>
       <r>    21.8247     1.0460    15.2113 </r>
       <r>    21.9466    -0.0911    15.2002 </r>
       <r>    22.0684    -0.0016    15.2000 </r>
       <r>    22.1903    -0.0000    15.2000 </r>
       <r>    22.3122    -0.0000    15.2000 </r>
       <r>    22.4341     0.0000    15.2000 </r>
       <r>    22.5560     0.0000    15.2000 </r>
       <r>    22.6779     0.0000    15.2000 </r>
       <r>    22.7997     0.0000    15.2000 </r>
       <r>    22.9216     0.0000    15.2000 </r>
       <r>    23.0435     0.0000    15.2000 </r>
       <r>    23.1654    -0.0000    15.2000 </r>
       <r>    23.2873    -0.0000    15.2000 </r>
       <r>    23.4092    -0.0000    15.2000 </r>
       <r>    23.5310    -0.0000    15.2000 </r>
       <r>    23.6529    -0.0000    15.2000 </r>
       <r>    23.7748    -0.0001    15.2000 </r>
       <r>    23.8967    -0.0189    15.1977 </r>
       <r>    24.0186     0.1142    15.2116 </r>
       <r>    24.1405     1.3343    15.3742 </r>
       <r>    24.2623     0.1687    15.3948 </r>
       <r>    24.3842    -0.0625    15.3872 </r>
       <r>    24.5061     0.3187    15.4260 </r>
       <r>    24.6280     1.9865    15.6681 </r>
       <r>    24.7499     0.1219    15.6830 </r>
       <r>    24.8718    -0.0245    15.6800 </r>
       <r>    24.9936    -0.0001    15.6800 </r>
       <r>    25.1155    -0.0005    15.6799 </r>
       <r>    25.2374    -0.0237    15.6771 </r>
       <r>    25.3593     0.2809    15.7113 </r>
       <r>    25.4812     0.5513    15.7785 </r>
       <r>    25.6031    -0.0176    15.7763 </r>
       <r>    25.7249    -0.0028    15.7760 </r>
       <r>    25.8468    -0.0000    15.7760 </r>
       <r>    25.9687    -0.0000    15.7760 </r>
       <r>    26.0906    -0.0000    15.7760 </r>
       <r>    26.2125     0.0000    15.7760 </r>
       <r>    26.3344     0.0000    15.7760 </r>
       <r>    26.4562     0.0000    15.7760 </r>
       <r>    26.5781     0.0000    15.7760 </r>
       <r>    26.7000     0.0000    15.7760 </r>
       <r>    26.8219     0.0000    15.7760 </r>
       <r>    26.9438     0.0000    15.7760 </r>
       <r>    27.0657     0.0000    15.7760 </r>
       <r>    27.1875    -0.0000    15.7760 </r>
       <r>    27.3094    -0.0000    15.7760 </r>
       <r>    27.4313    -0.0000    15.7760 </r>
       <r>    27.5532    -0.0000    15.7760 </r>
       <r>    27.6751    -0.0000    15.7760 </r>
       <r>    27.7970    -0.0002    15.7760 </r>
       <r>    27.9188    -0.0296    15.7724 </r>
       <r>    28.0407     0.2585    15.8039 </r>
       <r>    28.1626     1.3070    15.9632 </r>
       <r>    28.2845     0.0536    15.9697 </r>
       <r>    28.4064    -0.0140    15.9680 </r>
       <r>    28.5283    -0.0001    15.9680 </r>
       <r>    28.6501    -0.0000    15.9680 </r>
       <r>    28.7720    -0.0000    15.9680 </r>
       <r>    28.8939     0.0000    15.9680 </r>
       <r>    29.0158     0.0000    15.9680 </r>
       <r>    29.1377     0.0000    15.9680 </r>
       <r>    29.2596     0.0000    15.9680 </r>
       <r>    29.3814     0.0000    15.9680 </r>
       <r>    29.5033     0.0000    15.9680 </r>
       <r>    29.6252     0.0000    15.9680 </r>
       <r>    29.7471    -0.0000    15.9680 </r>
       <r>    29.8690    -0.0000    15.9680 </r>
       <r>    29.9909    -0.0000    15.9680 </r>
       <r>    30.1127    -0.0000    15.9680 </r>
       <r>    30.2346    -0.0000    15.9680 </r>
       <r>    30.3565    -0.0000    15.9680 </r>
       <r>    30.4784    -0.0053    15.9674 </r>
       <r>    30.6003     0.0480    15.9732 </r>
       <r>    30.7222     0.2155    15.9995 </r>
       <r>    30.8440     0.0064    16.0003 </r>
       <r>    30.9659    -0.0021    16.0000 </r>
       <r>    31.0878    -0.0000    16.0000 </r>
       <r>    31.2097    -0.0000    16.0000 </r>
       <r>    31.3316    -0.0000    16.0000 </r>
       <r>    31.4535     0.0000    16.0000 </r>
       <r>    31.5753     0.0000    16.0000 </r>
       <r>    31.6972     0.0000    16.0000 </r>
       <r>    31.8191     0.0000    16.0000 </r>
       <r>    31.9410     0.0000    16.0000 </r>
       <r>    32.0629     0.0000    16.0000 </r>
       <r>    32.1848     0.0000    16.0000 </r>
       <r>    32.3066     0.0000    16.0000 </r>
      </set>
     </set>
    </array>
   </total>
  </dos>
 </calculation>
 <structure name="finalpos" >
  <crystal>
   <varray name="basis" >
    <v>       2.31889200       0.00000000      -0.81985200 </v>
    <v>      -1.15944600       2.00822000      -0.81985200 </v>
    <v>       0.00000000       0.00000000       2.45955700 </v>
   </varray>
   <i name="volume">     11.45377644 </i>
   <varray name="rec_basis" >
    <v>       0.43124044       0.24897671      -0.00000000 </v>
    <v>      -0.00000000       0.49795341       0.00000000 </v>
    <v>       0.14374675       0.24897660       0.40657728 </v>
   </varray>
  </crystal>
  <varray name="positions" >
   <v>       0.00000000       0.00000000       0.00000000 </v>
  </varray>
 </structure>
</modeling>
