 vasp.5.4.4.18Apr17-6-g9f103f2a35 (build Feb  5 2022 00:56:52) complex           
 executed on             LinuxGNU date 2022.02.08  02:01:59
 running on   14 total cores
 distrk:  each k-point on   14 cores,    1 groups
 distr:  one band on NCORES_PER_BAND=  14 cores,    1 groups


--------------------------------------------------------------------------------------------------------


 INCAR:
 POTCAR:    PAW_PBE Y_sv 25May2007                
 POTCAR:    PAW_PBE C 08Apr2002                   
 POTCAR:    PAW_PBE I 08Apr2002                   

 ----------------------------------------------------------------------------- 
|                                                                             |
|           W    W    AA    RRRRR   N    N  II  N    N   GGGG   !!!           |
|           W    W   A  A   R    R  NN   N  II  NN   N  G    G  !!!           |
|           W    W  A    A  R    R  N N  N  II  N N  N  G       !!!           |
|           W WW W  AAAAAA  RRRRR   N  N N  II  N  N N  G  GGG   !            |
|           WW  WW  A    A  R   R   N   NN  II  N   NN  G    G                |
|           W    W  A    A  R    R  N    N  II  N    N   GGGG   !!!           |
|                                                                             |
|      For optimal performance we recommend to set                            |
|        NCORE= 4 - approx SQRT( number of cores)                             |
|      NCORE specifies how many cores store one orbital (NPAR=cpu/NCORE).     |
|      This setting can  greatly improve the performance of VASP for DFT.     |
|      The default,   NCORE=1            might be grossly inefficient         |
|      on modern multi-core architectures or massively parallel machines.     |
|      Do your own testing !!!!                                               |
|      Unfortunately you need to use the default for GW and RPA calculations. |
|      (for HF NCORE is supported but not extensively tested yet)             |
|                                                                             |
 ----------------------------------------------------------------------------- 

 POTCAR:    PAW_PBE Y_sv 25May2007                
   VRHFIN =Y: 4s4p5s4d                                                          
   LEXCH  = PE                                                                  
   EATOM  =  1046.9140 eV,   76.9460 Ry                                         
                                                                                
   TITEL  = PAW_PBE Y_sv 25May2007                                              
   LULTRA =        F    use ultrasoft PP ?                                      
   IUNSCR =        1    unscreen: 0-lin 1-nonlin 2-no                           
   RPACOR =    2.200    partial core radius                                     
   POMASS =   88.906; ZVAL   =   11.000    mass and valenz                      
   RCORE  =    2.800    outmost cutoff radius                                   
   RWIGS  =    3.430; RWIGS  =    1.815    wigner-seitz radius (au A)           
   ENMAX  =  202.626; ENMIN  =  151.970 eV                                      
   RCLOC  =    2.212    cutoff for local pot                                    
   LCOR   =        T    correct aug charges                                     
   LPAW   =        T    paw PP                                                  
   EAUG   =  470.889                                                            
   DEXC   =    0.000                                                            
   RMAX   =    2.863    core radius for proj-oper                               
   RAUG   =    1.300    factor for augmentation sphere                          
   RDEP   =    2.926    radius for radial grids                                 
   RDEPT  =    2.280    core radius for aug-charge                              
                                                                                
   Atomic configuration                                                         
   11 entries                                                                   
     n  l   j            E        occ.                                          
     1  0  0.50    -16863.0720   2.0000                                         
     2  0  0.50     -2309.2881   2.0000                                         
     2  1  1.50     -2055.5536   6.0000                                         
     3  0  0.50      -367.1837   2.0000                                         
     3  1  1.50      -284.8912   6.0000                                         
     3  2  2.50      -149.4324  10.0000                                         
     4  0  0.50       -46.3345   2.0000                                         
     5  0  0.50        -3.6387   1.0000                                         
     4  1  1.50       -26.3769   6.0000                                         
     4  2  2.50        -1.6291   2.0000                                         
     4  3  2.50        -1.3606   0.0000                                         
   Description                                                                  
     l       E           TYP  RCUT    TYP  RCUT                                 
     0    -46.3344714     23  2.600                                             
     0     -3.6387002     23  2.700                                             
     1    -26.3769044     23  2.600                                             
     1    -27.7374870     23  2.600                                             
     2     -1.6291019     23  2.600                                             
     2      0.1354037     23  2.600                                             
     3     -1.3605826     23  2.800                                             
  local pseudopotential read in
  partial core-charges read in
  partial kinetic energy density read in
  atomic valenz-charges read in
  non local Contribution for L=           0  read in
    real space projection operators read in
  non local Contribution for L=           0  read in
    real space projection operators read in
  non local Contribution for L=           1  read in
    real space projection operators read in
  non local Contribution for L=           1  read in
    real space projection operators read in
  non local Contribution for L=           2  read in
    real space projection operators read in
  non local Contribution for L=           2  read in
    real space projection operators read in
  non local Contribution for L=           3  read in
    real space projection operators read in
    PAW grid and wavefunctions read in

   number of l-projection  operators is LMAX  =           7
   number of lm-projection operators is LMMAX =          25

 POTCAR:    PAW_PBE C 08Apr2002                   
   VRHFIN =C: s2p2                                                              
   LEXCH  = PE                                                                  
   EATOM  =   147.1560 eV,   10.8157 Ry                                         
                                                                                
   TITEL  = PAW_PBE C 08Apr2002                                                 
   LULTRA =        F    use ultrasoft PP ?                                      
   IUNSCR =        1    unscreen: 0-lin 1-nonlin 2-no                           
   RPACOR =    1.200    partial core radius                                     
   POMASS =   12.011; ZVAL   =    4.000    mass and valenz                      
   RCORE  =    1.500    outmost cutoff radius                                   
   RWIGS  =    1.630; RWIGS  =    0.863    wigner-seitz radius (au A)           
   ENMAX  =  400.000; ENMIN  =  300.000 eV                                      
   ICORE  =        2    local potential                                         
   LCOR   =        T    correct aug charges                                     
   LPAW   =        T    paw PP                                                  
   EAUG   =  644.873                                                            
   DEXC   =    0.000                                                            
   RMAX   =    1.529    core radius for proj-oper                               
   RAUG   =    1.300    factor for augmentation sphere                          
   RDEP   =    1.501    radius for radial grids                                 
   RDEPT  =    1.300    core radius for aug-charge                              
                                                                                
   Atomic configuration                                                         
    4 entries                                                                   
     n  l   j            E        occ.                                          
     1  0  0.50      -273.3789   2.0000                                         
     2  0  0.50       -13.7508   2.0000                                         
     2  1  0.50        -5.2854   2.0000                                         
     3  2  1.50        -5.4423   0.0000                                         
   Description                                                                  
     l       E           TYP  RCUT    TYP  RCUT                                 
     0    -13.7508458     23  1.200                                             
     0     -8.2022199     23  1.200                                             
     1     -5.2854383     23  1.500                                             
     1     34.0145650     23  1.500                                             
     2     -5.4423304      7  1.500                                             
  local pseudopotential read in
  partial core-charges read in
  partial kinetic energy density read in
  atomic valenz-charges read in
  non local Contribution for L=           0  read in
    real space projection operators read in
  non local Contribution for L=           0  read in
    real space projection operators read in
  non local Contribution for L=           1  read in
    real space projection operators read in
  non local Contribution for L=           1  read in
    real space projection operators read in
    PAW grid and wavefunctions read in

   number of l-projection  operators is LMAX  =           4
   number of lm-projection operators is LMMAX =           8

 POTCAR:    PAW_PBE I 08Apr2002                   
   VRHFIN =I : s2p5                                                             
   LEXCH  = PE                                                                  
   EATOM  =   315.8678 eV,   23.2156 Ry                                         
                                                                                
   TITEL  = PAW_PBE I 08Apr2002                                                 
   LULTRA =        F    use ultrasoft PP ?                                      
   IUNSCR =        1    unscreen: 0-lin 1-nonlin 2-no                           
   RPACOR =    2.200    partial core radius                                     
   POMASS =  126.904; ZVAL   =    7.000    mass and valenz                      
   RCORE  =    2.300    outmost cutoff radius                                   
   RWIGS  =    2.810; RWIGS  =    1.487    wigner-seitz radius (au A)           
   ENMAX  =  175.647; ENMIN  =  131.735 eV                                      
   ICORE  =        3    local potential                                         
   LCOR   =        T    correct aug charges                                     
   LPAW   =        T    paw PP                                                  
   EAUG   =  370.139                                                            
   DEXC   =    0.000                                                            
   RMAX   =    2.359    core radius for proj-oper                               
   RAUG   =    1.300    factor for augmentation sphere                          
   RDEP   =    2.392    radius for radial grids                                 
   RDEPT  =    2.170    core radius for aug-charge                              
                                                                                
   Atomic configuration                                                         
   13 entries                                                                   
     n  l   j            E        occ.                                          
     1  0  0.50    -32976.3739   2.0000                                         
     2  0  0.50     -5094.5933   2.0000                                         
     2  1  1.50     -4572.0131   6.0000                                         
     3  0  0.50     -1028.2813   2.0000                                         
     3  1  1.50      -859.0250   6.0000                                         
     3  2  2.50      -605.7620  10.0000                                         
     4  0  0.50      -180.5540   2.0000                                         
     4  1  1.50      -127.5306   6.0000                                         
     4  2  2.50       -50.2720  10.0000                                         
     5  0  0.50       -17.4058   2.0000                                         
     5  1  0.50        -7.0851   5.0000                                         
     5  2  1.50        -7.0750   0.0000                                         
     4  3  2.50        -7.0750   0.0000                                         
   Description                                                                  
     l       E           TYP  RCUT    TYP  RCUT                                 
     0    -17.4058016     23  2.300                                             
     0    -18.7663842     23  2.300                                             
     1     -7.0850686     23  2.300                                             
     1     -4.2150896     23  2.300                                             
     2     -7.0750295     23  2.300                                             
     3     -1.3605826     23  2.300                                             
  local pseudopotential read in
  partial core-charges read in
  partial kinetic energy density read in
  atomic valenz-charges read in
  non local Contribution for L=           0  read in
    real space projection operators read in
  non local Contribution for L=           0  read in
    real space projection operators read in
  non local Contribution for L=           1  read in
    real space projection operators read in
  non local Contribution for L=           1  read in
    real space projection operators read in
  non local Contribution for L=           2  read in
    real space projection operators read in
    PAW grid and wavefunctions read in

   number of l-projection  operators is LMAX  =           5
   number of lm-projection operators is LMMAX =          13

 Optimization of the real space projectors (new method)

 maximal supplied QI-value         = 13.42
 optimisation between [QCUT,QGAM] = [ 11.67, 23.35] = [ 38.16,152.62] Ry 
 Optimized for a Real-space Cutoff    1.68 Angstroem

   l    n(q)    QCUT    max X(q) W(low)/X(q) W(high)/X(q)  e(spline) 
   0     12    11.673    14.902    0.22E-04    0.24E-05    0.52E-07
   0     12    11.673     9.294    0.34E-04    0.58E-05    0.89E-07
   1     11    11.673    69.520    0.10E-04    0.47E-04    0.49E-06
   1     11    11.673    72.085    0.10E-04    0.48E-04    0.50E-06
   2     11    11.673    62.934    0.94E-04    0.14E-04    0.82E-06
   2     11    11.673    49.749    0.91E-04    0.13E-04    0.79E-06
   3     10    11.673     8.311    0.92E-04    0.21E-04    0.59E-06
 Optimization of the real space projectors (new method)

 maximal supplied QI-value         = 25.13
 optimisation between [QCUT,QGAM] = [ 11.56, 23.12] = [ 37.43,149.72] Ry 
 Optimized for a Real-space Cutoff    1.04 Angstroem

   l    n(q)    QCUT    max X(q) W(low)/X(q) W(high)/X(q)  e(spline) 
   0      7    11.561   115.676    0.20E-03    0.60E-03    0.21E-06
   0      7    11.561    87.132    0.20E-03    0.59E-03    0.21E-06
   1      7    11.561     4.429    0.23E-03    0.35E-03    0.15E-06
   1      7    11.561     2.733    0.18E-03    0.25E-03    0.12E-06
 Optimization of the real space projectors (new method)

 maximal supplied QI-value         = 16.25
 optimisation between [QCUT,QGAM] = [ 11.54, 23.24] = [ 37.28,151.24] Ry 
 Optimized for a Real-space Cutoff    1.40 Angstroem

   l    n(q)    QCUT    max X(q) W(low)/X(q) W(high)/X(q)  e(spline) 
   0     10    11.539   194.483    0.48E-04    0.89E-04    0.13E-06
   0     10    11.539   190.334    0.47E-04    0.86E-04    0.12E-06
   1      9    11.539   116.687    0.15E-03    0.73E-04    0.13E-06
   1      9    11.539    88.696    0.15E-03    0.72E-04    0.13E-06
   2      9    11.539     4.877    0.99E-05    0.58E-04    0.56E-07
  PAW_PBE Y_sv 25May2007                :
 energy of atom  1       EATOM=-1046.9140
 kinetic energy error for atom=    0.0008 (will be added to EATOM!!)
  PAW_PBE C 08Apr2002                   :
 energy of atom  2       EATOM= -147.1560
 kinetic energy error for atom=    0.0071 (will be added to EATOM!!)
  PAW_PBE I 08Apr2002                   :
 energy of atom  3       EATOM= -315.8678
 kinetic energy error for atom=    0.0009 (will be added to EATOM!!)


 POSCAR: Y8 C4 I7                                
  positions in direct lattice
  No initial velocities read in
 exchange correlation table for  LEXCH =        8
   RHO(1)=    0.500       N(1)  =     2000
   RHO(2)=  100.500       N(2)  =     4000

 VTST: version 3.2, (02/03/18)

 CHAIN: initializing optimizer
 
 OPT: Using VASP Conjugate-Gradient optimizer
 CHAIN: Read ICHAIN            0

 POSCAR: Y8 C4 I7                                
  positions in direct lattice
  No initial velocities read in



--------------------------------------------------------------------------------------------------------


 ion  position               nearest neighbor table
   1  0.000  0.333  0.118-  12 2.60  11 2.60   9 2.60  14 3.12  16 3.12  13 3.12   8 3.44   5 3.44
                             6 3.44   3 3.89   4 3.89   2 3.89   2 3.89   4 3.89   3 3.89
   2  0.500  0.333  0.118-  11 2.60  12 2.60  10 2.60  13 3.12  15 3.12  14 3.12   7 3.44   6 3.44
                             5 3.44   3 3.89   4 3.89   1 3.89   1 3.89   4 3.89   3 3.89
   3  0.250  0.833  0.118-  11 2.60   9 2.60  10 2.60  16 3.12  15 3.12  13 3.12   7 3.44   8 3.44
                             5 3.44   2 3.89   1 3.89   4 3.89   4 3.89   1 3.89   2 3.89
   4  0.750  0.833  0.118-  10 2.60   9 2.60  12 2.60  15 3.12  14 3.12  16 3.12   6 3.44   8 3.44
                             7 3.44   2 3.89   1 3.89   3 3.89   3 3.89   2 3.89   1 3.89
   5  0.250  0.167  0.882-  11 2.60  10 2.60   9 2.60  18 3.12  17 3.12   1 3.44   2 3.44   3 3.44
                             8 3.89   7 3.89   6 3.89   6 3.89   7 3.89   8 3.89
   6  0.750  0.167  0.882-  12 2.60   9 2.60  10 2.60  17 3.12  19 3.12   4 3.44   2 3.44   1 3.44
                             7 3.89   8 3.89   5 3.89   5 3.89   8 3.89   7 3.89
   7  0.500  0.667  0.882-  12 2.60  11 2.60  10 2.60  19 3.12  18 3.12   2 3.44   3 3.44   4 3.44
                             6 3.89   5 3.89   8 3.89   8 3.89   5 3.89   6 3.89
   8  0.000  0.667  0.882-  11 2.60  12 2.60   9 2.60  17 3.12  19 3.12  18 3.12   1 3.44   3 3.44
                             4 3.44   5 3.89   6 3.89   7 3.89   7 3.89   6 3.89   5 3.89
   9  0.000  0.000  0.000-   4 2.60   3 2.60   6 2.60   5 2.60   1 2.60   8 2.60
  10  0.500  0.000  0.000-   4 2.60   5 2.60   3 2.60   6 2.60   2 2.60   7 2.60
  11  0.250  0.500  0.000-   2 2.60   8 2.60   5 2.60   3 2.60   7 2.60   1 2.60
  12  0.750  0.500  0.000-   1 2.60   7 2.60   6 2.60   2 2.60   8 2.60   4 2.60
  13  0.250  0.167  0.313-   2 3.12   3 3.12   1 3.12
  14  0.750  0.167  0.313-   1 3.12   4 3.12   2 3.12
  15  0.500  0.667  0.313-   4 3.12   2 3.12   3 3.12
  16  0.000  0.667  0.313-   1 3.12   3 3.12   4 3.12
  17  0.000  0.333  0.687-   8 3.12   5 3.12   6 3.12
  18  0.250  0.833  0.687-   5 3.12   7 3.12   8 3.12
  19  0.750  0.833  0.687-   8 3.12   7 3.12   6 3.12


IMPORTANT INFORMATION: All symmetrisations will be switched off!
NOSYMM: (Re-)initialisation of all symmetry stuff for point group C_1.




Automatic generation of k-mesh.
 generate k-points for:    2    2    2
Space group operators:
 irot       det(A)        alpha          n_x          n_y          n_z        tau_x        tau_y        tau_z
    1     1.000000     0.000000     1.000000     0.000000     0.000000     0.000000     0.000000     0.000000
 
 Subroutine IBZKPT returns following result:
 ===========================================
 
 Found      8 irreducible k-points:
 
 Following reciprocal coordinates:
            Coordinates               Weight
  0.000000  0.000000  0.000000      1.000000
  0.500000  0.000000  0.000000      1.000000
  0.000000  0.500000  0.000000      1.000000
  0.500000  0.500000  0.000000      1.000000
  0.000000  0.000000  0.500000      1.000000
  0.500000  0.000000  0.500000      1.000000
  0.000000  0.500000  0.500000      1.000000
  0.500000  0.500000  0.500000      1.000000
 
 Following cartesian coordinates:
            Coordinates               Weight
  0.000000  0.000000  0.000000      1.000000
  0.064345 -0.000000  0.000000      1.000000
 -0.000000  0.074299  0.000000      1.000000
  0.064345  0.074299  0.000000      1.000000
  0.000000  0.000000  0.045047      1.000000
  0.064345 -0.000000  0.045047      1.000000
 -0.000000  0.074299  0.045047      1.000000
  0.064345  0.074299  0.045047      1.000000
 


--------------------------------------------------------------------------------------------------------




 Dimension of arrays:
   k-points           NKPTS =      8   k-points in BZ     NKDIM =      8   number of bands    NBANDS=     97
   number of dos      NEDOS =    301   number of ions     NIONS =     19
   non local maximal  LDIM  =      7   non local SUM 2l+1 LMDIM =     25
   total plane-waves  NPLWV = 252000
   max r-space proj   IRMAX =   8612   max aug-charges    IRDMAX=  31495
   dimension x,y,z NGX =    60 NGY =   50 NGZ =   84
   dimension x,y,z NGXF=   120 NGYF=  100 NGZF=  168
   support grid    NGXF=   120 NGYF=  100 NGZF=  168
   ions per type =               8   4   7
   NGX,Y,Z   is equivalent  to a cutoff of  12.84, 12.35, 12.58 a.u.
   NGXF,Y,Z  is equivalent  to a cutoff of  25.67, 24.70, 25.16 a.u.

 SYSTEM =  unknown system                          
 POSCAR =  Y8 C4 I7                                

 Startparameter for this run:
   NWRITE =      2    write-flag & timer
   PREC   = accura    normal or accurate (medium, high low for compatibility)
   ISTART =      0    job   : 0-new  1-cont  2-samecut
   ICHARG =      1    charge: 1-file 2-atom 10-const
   ISPIN  =      2    spin polarized calculation?
   LNONCOLLINEAR =      F non collinear calculations
   LSORBIT =      F    spin-orbit coupling
   INIWAV =      1    electr: 0-lowe 1-rand  2-diag
   LASPH  =      F    aspherical Exc in radial PAW
   METAGGA=      F    non-selfconsistent MetaGGA calc.

 Electronic Relaxation 1
   ENCUT  =  520.0 eV  38.22 Ry    6.18 a.u.  14.45 12.51 20.64*2*pi/ulx,y,z
   ENINI  =  520.0     initial cutoff
   ENAUG  =  644.9 eV  augmentation charge cutoff
   NELM   =    200;   NELMIN=  4; NELMDL= -5     # of ELM steps 
   EDIFF  = 0.1E-04   stopping-criterion for ELM
   LREAL  =      T    real-space projection
   NLSPLINE    = F    spline interpolate recip. space projectors
   LCOMPAT=      F    compatible to vasp.4.4
   GGA_COMPAT  = T    GGA compatible to vasp.4.4-vasp.4.6
   LMAXPAW     = -100 max onsite density
   LMAXMIX     =    2 max onsite mixed and CHGCAR
   VOSKOWN=      0    Vosko Wilk Nusair interpolation
   ROPT   =   -0.00025  -0.00025  -0.00025
 Ionic relaxation
   EDIFFG = -.2E-01   stopping-criterion for IOM
   NSW    =     99    number of steps for IOM
   NBLOCK =      1;   KBLOCK =     99    inner block; outer block 
   IBRION =      2    ionic relax: 0-MD 1-quasi-New 2-CG
   NFREE  =      1    steps in history (QN), initial steepest desc. (CG)
   ISIF   =      2    stress and relaxation
   IWAVPR =     11    prediction:  0-non 1-charg 2-wave 3-comb
   ISYM   =      0    0-nonsym 1-usesym 2-fastsym
   LCORR  =      T    Harris-Foulkes like correction to forces

   POTIM  = 0.5000    time-step for ionic-motion
   TEIN   =    0.0    initial temperature
   TEBEG  =    0.0;   TEEND  =   0.0 temperature during run
   SMASS  =  -3.00    Nose mass-parameter (am)
   estimated Nose-frequenzy (Omega)   =  0.10E-29 period in steps =****** mass=  -0.138E-26a.u.
   SCALEE = 1.0000    scale energy and forces
   NPACO  =    256;   APACO  = 16.0  distance and # of slots for P.C.
   PSTRESS=    0.0 pullay stress

  Mass of Ions in am
   POMASS =  88.91 12.01126.90
  Ionic Valenz
   ZVAL   =  11.00  4.00  7.00
  Atomic Wigner-Seitz radii
   RWIGS  =  -1.00 -1.00 -1.00
  virtual crystal weights 
   VCA    =   1.00  1.00  1.00
   NELECT =     153.0000    total number of electrons
   NUPDOWN=      -1.0000    fix difference up-down

 DOS related values:
   EMIN   =  10.00;   EMAX   =-10.00  energy-range for DOS
   EFERMI =   0.00
   ISMEAR =     0;   SIGMA  =   0.20  broadening in eV -4-tet -1-fermi 0-gaus

 Electronic relaxation 2 (details)
   IALGO  =     38    algorithm
   LDIAG  =      T    sub-space diagonalisation (order eigenvalues)
   LSUBROT=      F    optimize rotation matrix (better conditioning)
   TURBO    =      0    0=normal 1=particle mesh
   IRESTART =      0    0=no restart 2=restart with 2 vectors
   NREBOOT  =      0    no. of reboots
   NMIN     =      0    reboot dimension
   EREF     =   0.00    reference energy to select bands
   IMIX   =      4    mixing-type and parameters
     AMIX     =   0.40;   BMIX     =  1.00
     AMIX_MAG =   1.60;   BMIX_MAG =  1.00
     AMIN     =   0.10
     WC   =   100.;   INIMIX=   1;  MIXPRE=   1;  MAXMIX= -45

 Intra band minimization:
   WEIMIN = 0.0010     energy-eigenvalue tresh-hold
   EBREAK =  0.26E-07  absolut break condition
   DEPER  =   0.30     relativ break condition  

   TIME   =   0.40     timestep for ELM

  volume/ion in A,a.u.               =      30.55       206.16
  Fermi-wavevector in a.u.,A,eV,Ry     =   1.049675  1.983598 14.991144  1.101818
  Thomas-Fermi vector in A             =   2.184647

 Write flags
   LWAVE        =      F    write WAVECAR
   LDOWNSAMPLE  =      F    k-point downsampling of WAVECAR
   LCHARG       =      T    write CHGCAR
   LVTOT        =      F    write LOCPOT, total local potential
   LVHAR        =      F    write LOCPOT, Hartree potential only
   LELF         =      F    write electronic localiz. function (ELF)
   LORBIT       =     11    0 simple, 1 ext, 2 COOP (PROOUT), +10 PAW based schemes


 Dipole corrections
   LMONO  =      F    monopole corrections only (constant potential shift)
   LDIPOL =      F    correct potential (dipole corrections)
   IDIPOL =      0    1-x, 2-y, 3-z, 4-all directions 
   EPSILON=  1.0000000 bulk dielectric constant

 Exchange correlation treatment:
   GGA     =    --    GGA type
   LEXCH   =     8    internal setting for exchange type
   VOSKOWN=      0    Vosko Wilk Nusair interpolation
   LHFCALC =     F    Hartree Fock is set to
   LHFONE  =     F    Hartree Fock one center treatment
   AEXX    =    0.0000 exact exchange contribution

 Linear response parameters
   LEPSILON=     F    determine dielectric tensor
   LRPA    =     F    only Hartree local field effects (RPA)
   LNABLA  =     F    use nabla operator in PAW spheres
   LVEL    =     F    velocity operator in full k-point grid
   LINTERFAST=   F  fast interpolation
   KINTER  =     0    interpolate to denser k-point grid
   CSHIFT  =0.1000    complex shift for real part using Kramers Kronig
   OMEGAMAX=  -1.0    maximum frequency
   DEG_THRESHOLD= 0.2000000E-02 threshold for treating states as degnerate
   RTIME   =   -0.100 relaxation time in fs
  (WPLASMAI=    0.000 imaginary part of plasma frequency in eV, 0.658/RTIME)
   DFIELD  = 0.0000000 0.0000000 0.0000000 field for delta impulse in time

 Orbital magnetization related:
   ORBITALMAG=     F  switch on orbital magnetization
   LCHIMAG   =     F  perturbation theory with respect to B field
   DQ        =  0.001000  dq finite difference perturbation B field
   LLRAUG    =     F  two centre corrections for induced B field



--------------------------------------------------------------------------------------------------------


 conjugate gradient relaxation of ions
 charge density and potential will be updated during run
 spin polarized calculation
 Variant of blocked Davidson
 Davidson routine will perform the subspace rotation
 perform sub-space diagonalisation
    after iterative eigenvector-optimisation
 modified Broyden-mixing scheme, WC =      100.0
 initial mixing is a Kerker type mixing with AMIX =  0.4000 and BMIX =      1.0000
 Hartree-type preconditioning will be used
 using additional bands           20
 real space projection scheme for non local part
 use partial core corrections
 calculate Harris-corrections to forces   (improved forces if not selfconsistent)
 use gradient corrections 
 use of overlap-Matrix (Vanderbilt PP)
 Gauss-broadening in eV      SIGMA  =   0.20


--------------------------------------------------------------------------------------------------------


  energy-cutoff  :      520.00
  volume of cell :      580.43
      direct lattice vectors                 reciprocal lattice vectors
     7.770644000  0.000004000  0.000000000     0.128689463 -0.000000038  0.000000012
     0.000002000  6.729576000  0.000000000    -0.000000076  0.148597772  0.000000013
    -0.000001000 -0.000001000 11.099577000     0.000000000  0.000000000  0.090093523

  length of vectors
     7.770644000  6.729576000 11.099577000     0.128689463  0.148597772  0.090093523



 k-points in units of 2pi/SCALE and weight: read from INCAR                         
   0.00000000  0.00000000  0.00000000       0.125
   0.06434473 -0.00000002  0.00000001       0.125
  -0.00000004  0.07429889  0.00000001       0.125
   0.06434469  0.07429887  0.00000001       0.125
   0.00000000  0.00000000  0.04504676       0.125
   0.06434473 -0.00000002  0.04504677       0.125
  -0.00000004  0.07429889  0.04504677       0.125
   0.06434469  0.07429887  0.04504677       0.125

 k-points in reciprocal lattice and weights: read from INCAR                         
   0.00000000  0.00000000  0.00000000       0.125
   0.50000000  0.00000000  0.00000000       0.125
   0.00000000  0.50000000  0.00000000       0.125
   0.50000000  0.50000000  0.00000000       0.125
   0.00000000  0.00000000  0.50000000       0.125
   0.50000000  0.00000000  0.50000000       0.125
   0.00000000  0.50000000  0.50000000       0.125
   0.50000000  0.50000000  0.50000000       0.125

 position of ions in fractional coordinates (direct lattice) 
   0.00000000  0.33333400  0.11777000
   0.50000000  0.33333400  0.11777000
   0.25000000  0.83333300  0.11777000
   0.75000000  0.83333400  0.11777000
   0.25000000  0.16666700  0.88223000
   0.75000000  0.16666700  0.88223000
   0.50000000  0.66666600  0.88223000
   0.00000000  0.66666600  0.88223000
   0.00000000  0.00000000  0.00000000
   0.50000000  0.00000000  0.00000000
   0.25000000  0.50000000  0.00000000
   0.75000000  0.50000000  0.00000000
   0.25000100  0.16666700  0.31279500
   0.75000100  0.16666700  0.31279500
   0.50000100  0.66666700  0.31279500
   0.00000000  0.66666700  0.31279500
   0.00000000  0.33333400  0.68720500
   0.25000000  0.83333400  0.68720500
   0.75000000  0.83333300  0.68720500

 position of ions in cartesian coordinates  (Angst):
   0.00000055  2.24319637  1.30719718
   3.88532255  2.24319837  1.30719718
   1.94266255  5.60797864  1.30719718
   5.82798455  5.60798737  1.30719718
   1.94266045  1.12159836  9.79237982
   5.82798245  1.12160036  9.79237982
   3.88532245  4.48638063  9.79237982
   0.00000045  4.48637863  9.79237982
   0.00000000  0.00000000  0.00000000
   3.88532200  0.00000200  0.00000000
   1.94266200  3.36478900  0.00000000
   5.82798400  3.36479100  0.00000000
   1.94266879  1.12159893  3.47189219
   5.82799079  1.12160093  3.47189219
   3.88533079  4.48638793  3.47189219
   0.00000102  4.48638593  3.47189219
  -0.00000002  2.24319580  7.62768481
   1.94266198  5.60798480  7.62768481
   5.82798398  5.60798007  7.62768481



--------------------------------------------------------------------------------------------------------


 k-point  1 :   0.0000 0.0000 0.0000  plane waves:   15669
 k-point  2 :   0.5000 0.0000 0.0000  plane waves:   15660
 k-point  3 :   0.0000 0.5000 0.0000  plane waves:   15674
 k-point  4 :   0.5000 0.5000 0.0000  plane waves:   15604
 k-point  5 :   0.0000 0.0000 0.5000  plane waves:   15634
 k-point  6 :   0.5000 0.0000 0.5000  plane waves:   15620
 k-point  7 :   0.0000 0.5000 0.5000  plane waves:   15576
 k-point  8 :   0.5000 0.5000 0.5000  plane waves:   15592

 maximum and minimum number of plane-waves per node :      1140     1090

 maximum number of plane-waves:     15674
 maximum index in each direction: 
   IXMAX=   14   IYMAX=   12   IZMAX=   20
   IXMIN=  -14   IYMIN=  -13   IZMIN=  -21


 real space projection operators:
  total allocation   :      16940.16 KBytes
  max/ min on nodes  :       1335.70       1066.22


 parallel 3D FFT for wavefunctions:
    minimum data exchange during FFTs selected (reduces bandwidth)
 parallel 3D FFT for charge:
    minimum data exchange during FFTs selected (reduces bandwidth)


 total amount of memory used by VASP MPI-rank0    84564. kBytes
=======================================================================

   base      :      30000. kBytes
   nonlr-proj:       4414. kBytes
   fftplans  :       5705. kBytes
   grid      :      15123. kBytes
   one-center:        120. kBytes
   wavefun   :      29202. kBytes

     INWAV:  cpu time    0.0001: real time    0.0004
 Broyden mixing: mesh for mixing (old mesh)
   NGX = 29   NGY = 25   NGZ = 41
  (NGX  =120   NGY  =100   NGZ  =168)
  gives a total of  29725 points

 initial charge density was supplied:
 charge density of overlapping atoms calculated
 number of electron     153.0000000 magnetization      11.4000000
 keeping initial charge density in first step


--------------------------------------------------------------------------------------------------------


 Maximum index for non-local projection operator          922
 Maximum index for augmentation-charges         2693 (set IRDMAX)


--------------------------------------------------------------------------------------------------------


 First call to EWALD:  gamma=   0.212
 Maximum number of real-space cells 3x 3x 2
 Maximum number of reciprocal cells 3x 2x 3

    FEWALD:  cpu time    0.0028: real time    0.0028


--------------------------------------- Iteration      1(   1)  ---------------------------------------


    POTLOK:  cpu time    0.2953: real time    0.2975
    SETDIJ:  cpu time    0.0290: real time    0.0291
     EDDAV:  cpu time   10.5356: real time   10.5956
       DOS:  cpu time    0.0030: real time    0.0030
    --------------------------------------------
      LOOP:  cpu time   10.8628: real time   10.9252

 eigenvalue-minimisations  :  3104
 total energy-change (2. order) : 0.1042955E+04  (-0.6854249E+04)
 number of electron     153.0000000 magnetization      11.4000000
 augmentation part      153.0000000 magnetization      11.4000000

 Free energy of the ion-electron system (eV)
  ---------------------------------------------------
  alpha Z        PSCENC =       490.14769152
  Ewald energy   TEWEN  =     -5551.44447565
  -Hartree energ DENC   =     -5137.84492867
  -exchange      EXHF   =         0.00000000
  -V(xc)+E(xc)   XCENC  =       295.58172366
  PAW double counting   =      8755.10086986    -8465.77839650
  entropy T*S    EENTRO =        -0.12327878
  eigenvalues    EBANDS =      -517.65319180
  atomic energy  EATOM  =     11174.96942390
  Solvation  Ediel_sol  =         0.00000000
  ---------------------------------------------------
  free energy    TOTEN  =      1042.95543755 eV

  energy without entropy =     1043.07871633  energy(sigma->0) =     1043.01707694


--------------------------------------------------------------------------------------------------------




--------------------------------------- Iteration      1(   2)  ---------------------------------------


     EDDAV:  cpu time   12.1206: real time   12.1906
       DOS:  cpu time    0.0027: real time    0.0027
    --------------------------------------------
      LOOP:  cpu time   12.1233: real time   12.1933

 eigenvalue-minimisations  :  3674
 total energy-change (2. order) :-0.1054661E+04  (-0.1011333E+04)
 number of electron     153.0000000 magnetization      11.4000000
 augmentation part      153.0000000 magnetization      11.4000000

 Free energy of the ion-electron system (eV)
  ---------------------------------------------------
  alpha Z        PSCENC =       490.14769152
  Ewald energy   TEWEN  =     -5551.44447565
  -Hartree energ DENC   =     -5137.84492867
  -exchange      EXHF   =         0.00000000
  -V(xc)+E(xc)   XCENC  =       295.58172366
  PAW double counting   =      8755.10086986    -8465.77839650
  entropy T*S    EENTRO =        -0.07091689
  eigenvalues    EBANDS =     -1572.36644979
  atomic energy  EATOM  =     11174.96942390
  Solvation  Ediel_sol  =         0.00000000
  ---------------------------------------------------
  free energy    TOTEN  =       -11.70545855 eV

  energy without entropy =      -11.63454166  energy(sigma->0) =      -11.67000010


--------------------------------------------------------------------------------------------------------




--------------------------------------- Iteration      1(   3)  ---------------------------------------


     EDDAV:  cpu time   13.4519: real time   13.5339
       DOS:  cpu time    0.0026: real time    0.0026
    --------------------------------------------
      LOOP:  cpu time   13.4545: real time   13.5364

 eigenvalue-minimisations  :  4232
 total energy-change (2. order) :-0.1145280E+03  (-0.1127425E+03)
 number of electron     153.0000000 magnetization      11.4000000
 augmentation part      153.0000000 magnetization      11.4000000

 Free energy of the ion-electron system (eV)
  ---------------------------------------------------
  alpha Z        PSCENC =       490.14769152
  Ewald energy   TEWEN  =     -5551.44447565
  -Hartree energ DENC   =     -5137.84492867
  -exchange      EXHF   =         0.00000000
  -V(xc)+E(xc)   XCENC  =       295.58172366
  PAW double counting   =      8755.10086986    -8465.77839650
  entropy T*S    EENTRO =        -0.05132566
  eigenvalues    EBANDS =     -1686.91399465
  atomic energy  EATOM  =     11174.96942390
  Solvation  Ediel_sol  =         0.00000000
  ---------------------------------------------------
  free energy    TOTEN  =      -126.23341218 eV

  energy without entropy =     -126.18208652  energy(sigma->0) =     -126.20774935


--------------------------------------------------------------------------------------------------------




--------------------------------------- Iteration      1(   4)  ---------------------------------------


     EDDAV:  cpu time   16.5177: real time   16.6219
       DOS:  cpu time    0.0026: real time    0.0026
    --------------------------------------------
      LOOP:  cpu time   16.5204: real time   16.6245

 eigenvalue-minimisations  :  5408
 total energy-change (2. order) :-0.1183983E+02  (-0.1180450E+02)
 number of electron     153.0000000 magnetization      11.4000000
 augmentation part      153.0000000 magnetization      11.4000000

 Free energy of the ion-electron system (eV)
  ---------------------------------------------------
  alpha Z        PSCENC =       490.14769152
  Ewald energy   TEWEN  =     -5551.44447565
  -Hartree energ DENC   =     -5137.84492867
  -exchange      EXHF   =         0.00000000
  -V(xc)+E(xc)   XCENC  =       295.58172366
  PAW double counting   =      8755.10086986    -8465.77839650
  entropy T*S    EENTRO =        -0.05284200
  eigenvalues    EBANDS =     -1698.75230850
  atomic energy  EATOM  =     11174.96942390
  Solvation  Ediel_sol  =         0.00000000
  ---------------------------------------------------
  free energy    TOTEN  =      -138.07324236 eV

  energy without entropy =     -138.02040037  energy(sigma->0) =     -138.04682137


--------------------------------------------------------------------------------------------------------




--------------------------------------- Iteration      1(   5)  ---------------------------------------


     EDDAV:  cpu time   15.1930: real time   15.2846
       DOS:  cpu time    0.0028: real time    0.0028
    CHARGE:  cpu time    0.4307: real time    0.4319
    MIXING:  cpu time    0.0086: real time    0.0087
    --------------------------------------------
      LOOP:  cpu time   15.6352: real time   15.7280

 eigenvalue-minimisations  :  4920
 total energy-change (2. order) :-0.8512921E+00  (-0.8509281E+00)
 number of electron     152.9999985 magnetization       7.1554072
 augmentation part        6.4381980 magnetization       6.7908260

 Broyden mixing:
  rms(total) = 0.77271E+01    rms(broyden)= 0.77270E+01
  rms(prec ) = 0.81742E+01
  weight for this iteration     100.00

 Free energy of the ion-electron system (eV)
  ---------------------------------------------------
  alpha Z        PSCENC =       490.14769152
  Ewald energy   TEWEN  =     -5551.44447565
  -Hartree energ DENC   =     -5137.84492867
  -exchange      EXHF   =         0.00000000
  -V(xc)+E(xc)   XCENC  =       295.58172366
  PAW double counting   =      8755.10086986    -8465.77839650
  entropy T*S    EENTRO =        -0.05294836
  eigenvalues    EBANDS =     -1699.60349424
  atomic energy  EATOM  =     11174.96942390
  Solvation  Ediel_sol  =         0.00000000
  ---------------------------------------------------
  free energy    TOTEN  =      -138.92453446 eV

  energy without entropy =     -138.87158610  energy(sigma->0) =     -138.89806028


--------------------------------------------------------------------------------------------------------




--------------------------------------- Iteration      1(   6)  ---------------------------------------


    POTLOK:  cpu time    0.2917: real time    0.2935
    SETDIJ:  cpu time    0.0290: real time    0.0291
     EDDAV:  cpu time   12.7676: real time   12.8446
       DOS:  cpu time    0.0027: real time    0.0028
    CHARGE:  cpu time    0.4269: real time    0.4280
    MIXING:  cpu time    0.0088: real time    0.0088
    --------------------------------------------
      LOOP:  cpu time   13.5267: real time   13.6069

 eigenvalue-minimisations  :  3935
 total energy-change (2. order) : 0.2342385E+02  (-0.1234015E+02)
 number of electron     152.9999987 magnetization       4.2779909
 augmentation part        6.7279377 magnetization       3.8165845

 Broyden mixing:
  rms(total) = 0.66972E+01    rms(broyden)= 0.66971E+01
  rms(prec ) = 0.67251E+01
  weight for this iteration     100.00

 eigenvalues of (default mixing * dielectric matrix)
  average eigenvalue GAMMA=   1.1384
  1.1384

 Free energy of the ion-electron system (eV)
  ---------------------------------------------------
  alpha Z        PSCENC =       490.14769152
  Ewald energy   TEWEN  =     -5551.44447565
  -Hartree energ DENC   =     -5139.53236831
  -exchange      EXHF   =         0.00000000
  -V(xc)+E(xc)   XCENC  =       296.18351529
  PAW double counting   =     10883.36776369   -10609.75459723
  entropy T*S    EENTRO =        -0.05282501
  eigenvalues    EBANDS =     -1659.38480993
  atomic energy  EATOM  =     11174.96942390
  Solvation  Ediel_sol  =         0.00000000
  ---------------------------------------------------
  free energy    TOTEN  =      -115.50068172 eV

  energy without entropy =     -115.44785672  energy(sigma->0) =     -115.47426922


--------------------------------------------------------------------------------------------------------




--------------------------------------- Iteration      1(   7)  ---------------------------------------


    POTLOK:  cpu time    0.2888: real time    0.2902
    SETDIJ:  cpu time    0.0303: real time    0.0305
     EDDAV:  cpu time   13.3939: real time   13.4735
       DOS:  cpu time    0.0028: real time    0.0028
    CHARGE:  cpu time    0.4299: real time    0.4311
    MIXING:  cpu time    0.0089: real time    0.0089
    --------------------------------------------
      LOOP:  cpu time   14.1546: real time   14.2369

 eigenvalue-minimisations  :  4176
 total energy-change (2. order) :-0.1277125E+01  (-0.2068583E+01)
 number of electron     152.9999987 magnetization       1.0676172
 augmentation part        5.4144996 magnetization       0.6290052

 Broyden mixing:
  rms(total) = 0.37923E+01    rms(broyden)= 0.37923E+01
  rms(prec ) = 0.38102E+01
  weight for this iteration     100.00

 eigenvalues of (default mixing * dielectric matrix)
  average eigenvalue GAMMA=   1.5708
  0.7043  2.4373

 Free energy of the ion-electron system (eV)
  ---------------------------------------------------
  alpha Z        PSCENC =       490.14769152
  Ewald energy   TEWEN  =     -5551.44447565
  -Hartree energ DENC   =     -5124.67886894
  -exchange      EXHF   =         0.00000000
  -V(xc)+E(xc)   XCENC  =       294.19514776
  PAW double counting   =     12901.98376645   -12637.55847996
  entropy T*S    EENTRO =        -0.04761755
  eigenvalues    EBANDS =     -1664.34439452
  atomic energy  EATOM  =     11174.96942390
  Solvation  Ediel_sol  =         0.00000000
  ---------------------------------------------------
  free energy    TOTEN  =      -116.77780698 eV

  energy without entropy =     -116.73018943  energy(sigma->0) =     -116.75399821


--------------------------------------------------------------------------------------------------------




--------------------------------------- Iteration      1(   8)  ---------------------------------------


    POTLOK:  cpu time    0.2866: real time    0.2880
    SETDIJ:  cpu time    0.0301: real time    0.0302
     EDDAV:  cpu time   12.9587: real time   13.0398
       DOS:  cpu time    0.0027: real time    0.0027
    CHARGE:  cpu time    0.4290: real time    0.4301
    MIXING:  cpu time    0.0096: real time    0.0097
    --------------------------------------------
      LOOP:  cpu time   13.7168: real time   13.8006

 eigenvalue-minimisations  :  4008
 total energy-change (2. order) :-0.3317684E+00  (-0.6469823E+00)
 number of electron     152.9999987 magnetization       0.7197155
 augmentation part        5.2285865 magnetization       0.3234338

 Broyden mixing:
  rms(total) = 0.12193E+01    rms(broyden)= 0.12193E+01
  rms(prec ) = 0.12689E+01
  weight for this iteration     100.00

 eigenvalues of (default mixing * dielectric matrix)
  average eigenvalue GAMMA=   1.3151
  2.3976  0.9324  0.6152

 Free energy of the ion-electron system (eV)
  ---------------------------------------------------
  alpha Z        PSCENC =       490.14769152
  Ewald energy   TEWEN  =     -5551.44447565
  -Hartree energ DENC   =     -5138.56342903
  -exchange      EXHF   =         0.00000000
  -V(xc)+E(xc)   XCENC  =       293.82819595
  PAW double counting   =     14812.82744884   -14543.32082570
  entropy T*S    EENTRO =        -0.06624138
  eigenvalues    EBANDS =     -1655.48736386
  atomic energy  EATOM  =     11174.96942390
  Solvation  Ediel_sol  =         0.00000000
  ---------------------------------------------------
  free energy    TOTEN  =      -117.10957540 eV

  energy without entropy =     -117.04333401  energy(sigma->0) =     -117.07645471


--------------------------------------------------------------------------------------------------------




--------------------------------------- Iteration      1(   9)  ---------------------------------------


    POTLOK:  cpu time    0.2859: real time    0.2873
    SETDIJ:  cpu time    0.0295: real time    0.0296
     EDDAV:  cpu time   13.6084: real time   13.6888
       DOS:  cpu time    0.0028: real time    0.0028
    CHARGE:  cpu time    0.4445: real time    0.4457
    MIXING:  cpu time    0.0086: real time    0.0087
    --------------------------------------------
      LOOP:  cpu time   14.3797: real time   14.4629

 eigenvalue-minimisations  :  4280
 total energy-change (2. order) : 0.2661699E+00  (-0.1466535E+00)
 number of electron     152.9999987 magnetization       0.5689558
 augmentation part        5.0528122 magnetization       0.2984513

 Broyden mixing:
  rms(total) = 0.24536E+00    rms(broyden)= 0.24536E+00
  rms(prec ) = 0.27248E+00
  weight for this iteration     100.00

 eigenvalues of (default mixing * dielectric matrix)
  average eigenvalue GAMMA=   1.2289
  2.3675  0.9693  0.9693  0.6095

 Free energy of the ion-electron system (eV)
  ---------------------------------------------------
  alpha Z        PSCENC =       490.14769152
  Ewald energy   TEWEN  =     -5551.44447565
  -Hartree energ DENC   =     -5145.76718791
  -exchange      EXHF   =         0.00000000
  -V(xc)+E(xc)   XCENC  =       294.19963912
  PAW double counting   =     14915.62660068   -14644.20332385
  entropy T*S    EENTRO =        -0.07325104
  eigenvalues    EBANDS =     -1650.29852225
  atomic energy  EATOM  =     11174.96942390
  Solvation  Ediel_sol  =         0.00000000
  ---------------------------------------------------
  free energy    TOTEN  =      -116.84340547 eV

  energy without entropy =     -116.77015443  energy(sigma->0) =     -116.80677995


--------------------------------------------------------------------------------------------------------




--------------------------------------- Iteration      1(  10)  ---------------------------------------


    POTLOK:  cpu time    0.2850: real time    0.2864
    SETDIJ:  cpu time    0.0290: real time    0.0291
     EDDAV:  cpu time   13.5778: real time   13.6583
       DOS:  cpu time    0.0028: real time    0.0028
    CHARGE:  cpu time    0.4298: real time    0.4309
    MIXING:  cpu time    0.0093: real time    0.0094
    --------------------------------------------
      LOOP:  cpu time   14.3337: real time   14.4168

 eigenvalue-minimisations  :  4248
 total energy-change (2. order) :-0.1453815E-01  (-0.3556049E-01)
 number of electron     152.9999987 magnetization       0.3948969
 augmentation part        4.9724820 magnetization       0.2042877

 Broyden mixing:
  rms(total) = 0.13807E+00    rms(broyden)= 0.13806E+00
  rms(prec ) = 0.16180E+00
  weight for this iteration     100.00

 eigenvalues of (default mixing * dielectric matrix)
  average eigenvalue GAMMA=   1.2269
  2.2691  1.5617  0.8420  0.8420  0.6197

 Free energy of the ion-electron system (eV)
  ---------------------------------------------------
  alpha Z        PSCENC =       490.14769152
  Ewald energy   TEWEN  =     -5551.44447565
  -Hartree energ DENC   =     -5153.21763965
  -exchange      EXHF   =         0.00000000
  -V(xc)+E(xc)   XCENC  =       294.54202805
  PAW double counting   =     14915.97626907   -14641.24935763
  entropy T*S    EENTRO =        -0.07574331
  eigenvalues    EBANDS =     -1646.50613992
  atomic energy  EATOM  =     11174.96942390
  Solvation  Ediel_sol  =         0.00000000
  ---------------------------------------------------
  free energy    TOTEN  =      -116.85794361 eV

  energy without entropy =     -116.78220030  energy(sigma->0) =     -116.82007196


--------------------------------------------------------------------------------------------------------




--------------------------------------- Iteration      1(  11)  ---------------------------------------


    POTLOK:  cpu time    0.2829: real time    0.2847
    SETDIJ:  cpu time    0.0292: real time    0.0293
     EDDAV:  cpu time   13.0896: real time   13.1686
       DOS:  cpu time    0.0028: real time    0.0028
    CHARGE:  cpu time    0.4291: real time    0.4302
    MIXING:  cpu time    0.0098: real time    0.0098
    --------------------------------------------
      LOOP:  cpu time   13.8434: real time   13.9255

 eigenvalue-minimisations  :  4064
 total energy-change (2. order) :-0.3705314E-02  (-0.9808047E-02)
 number of electron     152.9999987 magnetization       0.2387083
 augmentation part        4.9797050 magnetization       0.1251392

 Broyden mixing:
  rms(total) = 0.58199E-01    rms(broyden)= 0.58198E-01
  rms(prec ) = 0.72623E-01
  weight for this iteration     100.00

 eigenvalues of (default mixing * dielectric matrix)
  average eigenvalue GAMMA=   1.2648
  2.2437  2.2437  0.8879  0.8879  0.6024  0.7230

 Free energy of the ion-electron system (eV)
  ---------------------------------------------------
  alpha Z        PSCENC =       490.14769152
  Ewald energy   TEWEN  =     -5551.44447565
  -Hartree energ DENC   =     -5161.96871707
  -exchange      EXHF   =         0.00000000
  -V(xc)+E(xc)   XCENC  =       294.87034725
  PAW double counting   =     14874.35092684   -14594.86187504
  entropy T*S    EENTRO =        -0.07755659
  eigenvalues    EBANDS =     -1642.84741410
  atomic energy  EATOM  =     11174.96942390
  Solvation  Ediel_sol  =         0.00000000
  ---------------------------------------------------
  free energy    TOTEN  =      -116.86164893 eV

  energy without entropy =     -116.78409234  energy(sigma->0) =     -116.82287063


--------------------------------------------------------------------------------------------------------




--------------------------------------- Iteration      1(  12)  ---------------------------------------


    POTLOK:  cpu time    0.2822: real time    0.2836
    SETDIJ:  cpu time    0.0287: real time    0.0288
     EDDAV:  cpu time   13.6341: real time   13.7215
       DOS:  cpu time    0.0026: real time    0.0026
    CHARGE:  cpu time    0.4283: real time    0.4293
    MIXING:  cpu time    0.0097: real time    0.0097
    --------------------------------------------
      LOOP:  cpu time   14.3856: real time   14.4755

 eigenvalue-minimisations  :  4280
 total energy-change (2. order) :-0.2670964E-02  (-0.1205433E-02)
 number of electron     152.9999987 magnetization       0.1578806
 augmentation part        4.9996150 magnetization       0.0924379

 Broyden mixing:
  rms(total) = 0.34647E-01    rms(broyden)= 0.34647E-01
  rms(prec ) = 0.42000E-01
  weight for this iteration     100.00

 eigenvalues of (default mixing * dielectric matrix)
  average eigenvalue GAMMA=   1.2472
  2.3013  2.3013  1.2211  0.8339  0.8339  0.6195  0.6195

 Free energy of the ion-electron system (eV)
  ---------------------------------------------------
  alpha Z        PSCENC =       490.14769152
  Ewald energy   TEWEN  =     -5551.44447565
  -Hartree energ DENC   =     -5165.78760915
  -exchange      EXHF   =         0.00000000
  -V(xc)+E(xc)   XCENC  =       295.00940558
  PAW double counting   =     14899.24962847   -14618.17859846
  entropy T*S    EENTRO =        -0.07837400
  eigenvalues    EBANDS =     -1640.75141212
  atomic energy  EATOM  =     11174.96942390
  Solvation  Ediel_sol  =         0.00000000
  ---------------------------------------------------
  free energy    TOTEN  =      -116.86431989 eV

  energy without entropy =     -116.78594589  energy(sigma->0) =     -116.82513289


--------------------------------------------------------------------------------------------------------




--------------------------------------- Iteration      1(  13)  ---------------------------------------


    POTLOK:  cpu time    0.2807: real time    0.2820
    SETDIJ:  cpu time    0.0287: real time    0.0288
     EDDAV:  cpu time   13.4597: real time   13.5410
       DOS:  cpu time    0.0027: real time    0.0028
    CHARGE:  cpu time    0.4291: real time    0.4302
    MIXING:  cpu time    0.0101: real time    0.0102
    --------------------------------------------
      LOOP:  cpu time   14.2111: real time   14.2951

 eigenvalue-minimisations  :  4240
 total energy-change (2. order) :-0.1676384E-02  (-0.5617222E-03)
 number of electron     152.9999987 magnetization       0.0936276
 augmentation part        5.0083445 magnetization       0.0445700

 Broyden mixing:
  rms(total) = 0.17964E-01    rms(broyden)= 0.17963E-01
  rms(prec ) = 0.23028E-01
  weight for this iteration     100.00

 eigenvalues of (default mixing * dielectric matrix)
  average eigenvalue GAMMA=   1.2672
  2.3973  2.3973  1.2225  1.2225  0.8357  0.8357  0.6158  0.6104

 Free energy of the ion-electron system (eV)
  ---------------------------------------------------
  alpha Z        PSCENC =       490.14769152
  Ewald energy   TEWEN  =     -5551.44447565
  -Hartree energ DENC   =     -5166.84298330
  -exchange      EXHF   =         0.00000000
  -V(xc)+E(xc)   XCENC  =       295.04228762
  PAW double counting   =     14913.87636683   -14632.68778415
  entropy T*S    EENTRO =        -0.07859831
  eigenvalues    EBANDS =     -1639.84792474
  atomic energy  EATOM  =     11174.96942390
  Solvation  Ediel_sol  =         0.00000000
  ---------------------------------------------------
  free energy    TOTEN  =      -116.86599628 eV

  energy without entropy =     -116.78739797  energy(sigma->0) =     -116.82669712


--------------------------------------------------------------------------------------------------------




--------------------------------------- Iteration      1(  14)  ---------------------------------------


    POTLOK:  cpu time    0.2810: real time    0.2824
    SETDIJ:  cpu time    0.0288: real time    0.0289
     EDDAV:  cpu time   12.1056: real time   12.1794
       DOS:  cpu time    0.0026: real time    0.0026
    CHARGE:  cpu time    0.4318: real time    0.4329
    MIXING:  cpu time    0.0093: real time    0.0093
    --------------------------------------------
      LOOP:  cpu time   12.8591: real time   12.9355

 eigenvalue-minimisations  :  3688
 total energy-change (2. order) :-0.1678950E-02  (-0.2289981E-03)
 number of electron     152.9999987 magnetization       0.0287329
 augmentation part        5.0126654 magnetization      -0.0007453

 Broyden mixing:
  rms(total) = 0.89162E-02    rms(broyden)= 0.89160E-02
  rms(prec ) = 0.13458E-01
  weight for this iteration     100.00

 eigenvalues of (default mixing * dielectric matrix)
  average eigenvalue GAMMA=   1.3394
  2.5801  2.5801  1.9106  1.2990  0.8424  0.8424  0.7649  0.6175  0.6175

 Free energy of the ion-electron system (eV)
  ---------------------------------------------------
  alpha Z        PSCENC =       490.14769152
  Ewald energy   TEWEN  =     -5551.44447565
  -Hartree energ DENC   =     -5167.76781903
  -exchange      EXHF   =         0.00000000
  -V(xc)+E(xc)   XCENC  =       295.06987193
  PAW double counting   =     14912.24497469   -14630.96533919
  entropy T*S    EENTRO =        -0.07865056
  eigenvalues    EBANDS =     -1639.04335284
  atomic energy  EATOM  =     11174.96942390
  Solvation  Ediel_sol  =         0.00000000
  ---------------------------------------------------
  free energy    TOTEN  =      -116.86767523 eV

  energy without entropy =     -116.78902466  energy(sigma->0) =     -116.82834995


--------------------------------------------------------------------------------------------------------




--------------------------------------- Iteration      1(  15)  ---------------------------------------


    POTLOK:  cpu time    0.2775: real time    0.2789
    SETDIJ:  cpu time    0.0291: real time    0.0292
     EDDAV:  cpu time   12.0857: real time   12.1592
       DOS:  cpu time    0.0026: real time    0.0026
    CHARGE:  cpu time    0.4305: real time    0.4316
    MIXING:  cpu time    0.0097: real time    0.0097
    --------------------------------------------
      LOOP:  cpu time   12.8352: real time   12.9113

 eigenvalue-minimisations  :  3672
 total energy-change (2. order) :-0.8238791E-03  (-0.1091792E-03)
 number of electron     152.9999987 magnetization       0.0042495
 augmentation part        5.0163698 magnetization      -0.0061443

 Broyden mixing:
  rms(total) = 0.41978E-02    rms(broyden)= 0.41977E-02
  rms(prec ) = 0.62012E-02
  weight for this iteration     100.00

 eigenvalues of (default mixing * dielectric matrix)
  average eigenvalue GAMMA=   1.3621
  3.0787  2.3039  2.3039  1.3955  0.9547  0.8025  0.8025  0.7242  0.6125  0.6424

 Free energy of the ion-electron system (eV)
  ---------------------------------------------------
  alpha Z        PSCENC =       490.14769152
  Ewald energy   TEWEN  =     -5551.44447565
  -Hartree energ DENC   =     -5168.48245368
  -exchange      EXHF   =         0.00000000
  -V(xc)+E(xc)   XCENC  =       295.09055816
  PAW double counting   =     14918.69749124   -14637.49294701
  entropy T*S    EENTRO =        -0.07872482
  eigenvalues    EBANDS =     -1638.27506278
  atomic energy  EATOM  =     11174.96942390
  Solvation  Ediel_sol  =         0.00000000
  ---------------------------------------------------
  free energy    TOTEN  =      -116.86849911 eV

  energy without entropy =     -116.78977428  energy(sigma->0) =     -116.82913669


--------------------------------------------------------------------------------------------------------




--------------------------------------- Iteration      1(  16)  ---------------------------------------


    POTLOK:  cpu time    0.2744: real time    0.2764
    SETDIJ:  cpu time    0.0286: real time    0.0287
     EDDAV:  cpu time   12.4010: real time   12.4759
       DOS:  cpu time    0.0026: real time    0.0027
    CHARGE:  cpu time    0.4288: real time    0.4298
    MIXING:  cpu time    0.0106: real time    0.0106
    --------------------------------------------
      LOOP:  cpu time   13.1460: real time   13.2241

 eigenvalue-minimisations  :  3808
 total energy-change (2. order) :-0.1620096E-03  (-0.4132278E-04)
 number of electron     152.9999987 magnetization      -0.0000371
 augmentation part        5.0184883 magnetization      -0.0026442

 Broyden mixing:
  rms(total) = 0.28937E-02    rms(broyden)= 0.28935E-02
  rms(prec ) = 0.34018E-02
  weight for this iteration     100.00

 eigenvalues of (default mixing * dielectric matrix)
  average eigenvalue GAMMA=   1.3095
  3.2559  2.3119  2.3119  1.4726  0.9796  0.8025  0.8025  0.6625  0.6625  0.5713
  0.5713

 Free energy of the ion-electron system (eV)
  ---------------------------------------------------
  alpha Z        PSCENC =       490.14769152
  Ewald energy   TEWEN  =     -5551.44447565
  -Hartree energ DENC   =     -5168.76849146
  -exchange      EXHF   =         0.00000000
  -V(xc)+E(xc)   XCENC  =       295.09946552
  PAW double counting   =     14919.50425675   -14638.35974062
  entropy T*S    EENTRO =        -0.07873682
  eigenvalues    EBANDS =     -1637.93805426
  atomic energy  EATOM  =     11174.96942390
  Solvation  Ediel_sol  =         0.00000000
  ---------------------------------------------------
  free energy    TOTEN  =      -116.86866112 eV

  energy without entropy =     -116.78992429  energy(sigma->0) =     -116.82929270


--------------------------------------------------------------------------------------------------------




--------------------------------------- Iteration      1(  17)  ---------------------------------------


    POTLOK:  cpu time    0.2752: real time    0.2765
    SETDIJ:  cpu time    0.0285: real time    0.0286
     EDDAV:  cpu time   10.7021: real time   10.7715
       DOS:  cpu time    0.0027: real time    0.0027
    CHARGE:  cpu time    0.4298: real time    0.4309
    MIXING:  cpu time    0.0106: real time    0.0107
    --------------------------------------------
      LOOP:  cpu time   11.4490: real time   11.5210

 eigenvalue-minimisations  :  3144
 total energy-change (2. order) :-0.2623174E-04  (-0.4107925E-05)
 number of electron     152.9999987 magnetization      -0.0015808
 augmentation part        5.0185231 magnetization      -0.0018834

 Broyden mixing:
  rms(total) = 0.16819E-02    rms(broyden)= 0.16818E-02
  rms(prec ) = 0.19433E-02
  weight for this iteration     100.00

 eigenvalues of (default mixing * dielectric matrix)
  average eigenvalue GAMMA=   1.3527
  3.5515  2.4029  2.4029  1.7311  1.1075  0.8000  0.8000  0.7426  0.7426  0.7467
  0.6022  0.6022

 Free energy of the ion-electron system (eV)
  ---------------------------------------------------
  alpha Z        PSCENC =       490.14769152
  Ewald energy   TEWEN  =     -5551.44447565
  -Hartree energ DENC   =     -5168.75594603
  -exchange      EXHF   =         0.00000000
  -V(xc)+E(xc)   XCENC  =       295.09852270
  PAW double counting   =     14917.52465272   -14636.46439737
  entropy T*S    EENTRO =        -0.07873228
  eigenvalues    EBANDS =     -1637.86542688
  atomic energy  EATOM  =     11174.96942390
  Solvation  Ediel_sol  =         0.00000000
  ---------------------------------------------------
  free energy    TOTEN  =      -116.86868735 eV

  energy without entropy =     -116.78995507  energy(sigma->0) =     -116.82932121


--------------------------------------------------------------------------------------------------------




--------------------------------------- Iteration      1(  18)  ---------------------------------------


    POTLOK:  cpu time    0.2734: real time    0.2747
    SETDIJ:  cpu time    0.0288: real time    0.0289
     EDDAV:  cpu time    9.2692: real time    9.3253
       DOS:  cpu time    0.0028: real time    0.0028
    --------------------------------------------
      LOOP:  cpu time    9.5742: real time    9.6318

 eigenvalue-minimisations  :  2600
 total energy-change (2. order) :-0.4442838E-05  (-0.7283000E-06)
 number of electron     152.9999987 magnetization      -0.0015808
 augmentation part        5.0185231 magnetization      -0.0018834

 Free energy of the ion-electron system (eV)
  ---------------------------------------------------
  alpha Z        PSCENC =       490.14769152
  Ewald energy   TEWEN  =     -5551.44447565
  -Hartree energ DENC   =     -5168.74212135
  -exchange      EXHF   =         0.00000000
  -V(xc)+E(xc)   XCENC  =       295.09741421
  PAW double counting   =     14916.05598081   -14635.04366295
  entropy T*S    EENTRO =        -0.07873287
  eigenvalues    EBANDS =     -1637.83020942
  atomic energy  EATOM  =     11174.96942390
  Solvation  Ediel_sol  =         0.00000000
  ---------------------------------------------------
  free energy    TOTEN  =      -116.86869179 eV

  energy without entropy =     -116.78995892  energy(sigma->0) =     -116.82932535


--------------------------------------------------------------------------------------------------------




 average (electrostatic) potential at core
  the test charge radii are     1.2780  0.6991  1.1875
  (the norm of the test charge is              1.0000)
       1 -36.8035       2 -36.7837       3 -36.8247       4 -36.8247       5 -37.1412
       6 -37.1412       7 -37.1081       8 -36.8843       9 -49.9589      10 -50.0088
      11 -49.9520      12 -49.9521      13 -92.5843      14 -92.5843      15 -92.5944
      16 -92.5944      17 -93.0995      18 -93.0335      19 -93.0335



 E-fermi :   3.5590     XC(G=0):  -8.6151     alpha+bet : -9.1734


 spin component 1

 k-point     1 :       0.0000    0.0000    0.0000
  band No.  band energies     occupation 
      1     -39.0365      1.00000
      2     -39.0261      1.00000
      3     -38.9966      1.00000
      4     -38.7811      1.00000
      5     -38.7165      1.00000
      6     -38.7096      1.00000
      7     -38.6916      1.00000
      8     -38.6719      1.00000
      9     -19.2191      1.00000
     10     -19.1636      1.00000
     11     -19.1562      1.00000
     12     -19.1470      1.00000
     13     -19.1173      1.00000
     14     -19.0536      1.00000
     15     -19.0377      1.00000
     16     -18.9809      1.00000
     17     -18.9589      1.00000
     18     -18.9577      1.00000
     19     -18.8291      1.00000
     20     -18.7997      1.00000
     21     -18.7786      1.00000
     22     -18.7481      1.00000
     23     -18.7468      1.00000
     24     -18.7016      1.00000
     25     -18.6923      1.00000
     26     -18.6841      1.00000
     27     -18.6823      1.00000
     28     -18.6754      1.00000
     29     -18.6417      1.00000
     30     -18.6414      1.00000
     31     -18.6026      1.00000
     32     -18.5983      1.00000
     33     -10.0851      1.00000
     34      -9.7858      1.00000
     35      -9.5871      1.00000
     36      -9.5496      1.00000
     37      -9.1317      1.00000
     38      -9.1250      1.00000
     39      -9.1228      1.00000
     40      -5.3182      1.00000
     41      -4.8485      1.00000
     42      -4.8152      1.00000
     43      -4.8118      1.00000
     44      -1.2311      1.00000
     45      -1.1016      1.00000
     46      -1.0429      1.00000
     47      -0.6879      1.00000
     48      -0.6261      1.00000
     49      -0.6071      1.00000
     50      -0.4720      1.00000
     51      -0.2153      1.00000
     52      -0.1076      1.00000
     53      -0.0706      1.00000
     54       0.1074      1.00000
     55       0.2749      1.00000
     56       0.3432      1.00000
     57       0.3585      1.00000
     58       0.4893      1.00000
     59       0.5053      1.00000
     60       1.0201      1.00000
     61       1.2721      1.00000
     62       1.3730      1.00000
     63       1.4094      1.00000
     64       1.5989      1.00000
     65       1.6600      1.00000
     66       1.8777      1.00000
     67       1.8903      1.00000
     68       1.8928      1.00000
     69       2.0536      1.00000
     70       2.0688      1.00000
     71       2.3985      1.00000
     72       2.4285      1.00000
     73       2.4450      1.00000
     74       2.5492      1.00000
     75       2.7726      1.00000
     76       2.8019      1.00000
     77       3.4867      0.69540
     78       3.9083      0.00675
     79       4.8799      0.00000
     80       5.0197      0.00000
     81       5.0649      0.00000
     82       5.1823      0.00000
     83       5.2894      0.00000
     84       5.2940      0.00000
     85       5.6288      0.00000
     86       6.5348      0.00000
     87       6.5642      0.00000
     88       6.6479      0.00000
     89       6.7194      0.00000
     90       6.7925      0.00000
     91       6.8874      0.00000
     92       6.9825      0.00000
     93       7.1584      0.00000
     94       7.1948      0.00000
     95       7.2090      0.00000
     96       7.2919      0.00000
     97       7.3044      0.00000

 k-point     2 :       0.5000    0.0000    0.0000
  band No.  band energies     occupation 
      1     -39.0319      1.00000
      2     -39.0309      1.00000
      3     -38.9964      1.00000
      4     -38.7811      1.00000
      5     -38.7140      1.00000
      6     -38.7123      1.00000
      7     -38.6911      1.00000
      8     -38.6724      1.00000
      9     -19.1916      1.00000
     10     -19.1890      1.00000
     11     -19.1342      1.00000
     12     -19.1195      1.00000
     13     -19.0812      1.00000
     14     -19.0565      1.00000
     15     -19.0562      1.00000
     16     -19.0075      1.00000
     17     -18.9524      1.00000
     18     -18.9401      1.00000
     19     -18.8672      1.00000
     20     -18.8183      1.00000
     21     -18.7596      1.00000
     22     -18.7557      1.00000
     23     -18.7171      1.00000
     24     -18.7119      1.00000
     25     -18.6965      1.00000
     26     -18.6755      1.00000
     27     -18.6742      1.00000
     28     -18.6706      1.00000
     29     -18.6615      1.00000
     30     -18.6436      1.00000
     31     -18.6237      1.00000
     32     -18.6183      1.00000
     33      -9.9963      1.00000
     34      -9.7339      1.00000
     35      -9.5448      1.00000
     36      -9.5444      1.00000
     37      -9.5003      1.00000
     38      -9.0483      1.00000
     39      -9.0480      1.00000
     40      -5.1311      1.00000
     41      -5.0995      1.00000
     42      -4.7880      1.00000
     43      -4.7640      1.00000
     44      -1.0957      1.00000
     45      -0.6926      1.00000
     46      -0.6876      1.00000
     47      -0.6267      1.00000
     48      -0.3887      1.00000
     49      -0.3117      1.00000
     50      -0.2268      1.00000
     51      -0.2146      1.00000
     52      -0.1859      1.00000
     53       0.0282      1.00000
     54       0.0490      1.00000
     55       0.1149      1.00000
     56       0.1413      1.00000
     57       0.1765      1.00000
     58       0.4345      1.00000
     59       0.4389      1.00000
     60       0.7267      1.00000
     61       0.7296      1.00000
     62       1.3028      1.00000
     63       1.5425      1.00000
     64       1.6188      1.00000
     65       1.6683      1.00000
     66       1.7029      1.00000
     67       1.7684      1.00000
     68       1.9010      1.00000
     69       1.9183      1.00000
     70       1.9714      1.00000
     71       2.0531      1.00000
     72       2.1168      1.00000
     73       2.3644      1.00000
     74       2.4525      1.00000
     75       2.5095      1.00000
     76       2.5234      1.00000
     77       4.1779      0.00001
     78       4.4726      0.00000
     79       4.6482      0.00000
     80       4.8277      0.00000
     81       5.0432      0.00000
     82       5.2547      0.00000
     83       5.3640      0.00000
     84       5.7773      0.00000
     85       5.8324      0.00000
     86       6.0466      0.00000
     87       6.1658      0.00000
     88       6.3069      0.00000
     89       6.4294      0.00000
     90       6.5568      0.00000
     91       6.5888      0.00000
     92       6.7914      0.00000
     93       6.9584      0.00000
     94       7.0218      0.00000
     95       7.1865      0.00000
     96       7.4178      0.00000
     97       7.4837      0.00000

 k-point     3 :       0.0000    0.5000    0.0000
  band No.  band energies     occupation 
      1     -39.0352      1.00000
      2     -39.0261      1.00000
      3     -38.9978      1.00000
      4     -38.7811      1.00000
      5     -38.7152      1.00000
      6     -38.7096      1.00000
      7     -38.6927      1.00000
      8     -38.6724      1.00000
      9     -19.2078      1.00000
     10     -19.1807      1.00000
     11     -19.1615      1.00000
     12     -19.1347      1.00000
     13     -19.1309      1.00000
     14     -19.0568      1.00000
     15     -19.0071      1.00000
     16     -18.9756      1.00000
     17     -18.9621      1.00000
     18     -18.9485      1.00000
     19     -18.8420      1.00000
     20     -18.8097      1.00000
     21     -18.7757      1.00000
     22     -18.7739      1.00000
     23     -18.7350      1.00000
     24     -18.7026      1.00000
     25     -18.6964      1.00000
     26     -18.6815      1.00000
     27     -18.6672      1.00000
     28     -18.6507      1.00000
     29     -18.6450      1.00000
     30     -18.6316      1.00000
     31     -18.6300      1.00000
     32     -18.6084      1.00000
     33      -9.8969      1.00000
     34      -9.7906      1.00000
     35      -9.5488      1.00000
     36      -9.4821      1.00000
     37      -9.4737      1.00000
     38      -9.1295      1.00000
     39      -9.1206      1.00000
     40      -5.0749      1.00000
     41      -5.0561      1.00000
     42      -4.8347      1.00000
     43      -4.8137      1.00000
     44      -1.3772      1.00000
     45      -1.1548      1.00000
     46      -1.1203      1.00000
     47      -0.8380      1.00000
     48      -0.5753      1.00000
     49      -0.4367      1.00000
     50      -0.3243      1.00000
     51      -0.1096      1.00000
     52      -0.0875      1.00000
     53      -0.0189      1.00000
     54       0.2803      1.00000
     55       0.3297      1.00000
     56       0.3479      1.00000
     57       0.3788      1.00000
     58       0.4677      1.00000
     59       0.9810      1.00000
     60       1.3084      1.00000
     61       1.3387      1.00000
     62       1.3719      1.00000
     63       1.3891      1.00000
     64       1.4502      1.00000
     65       1.6949      1.00000
     66       1.7199      1.00000
     67       1.7301      1.00000
     68       1.9033      1.00000
     69       2.0672      1.00000
     70       2.1283      1.00000
     71       2.4261      1.00000
     72       2.4268      1.00000
     73       2.4687      1.00000
     74       2.5313      1.00000
     75       2.5599      1.00000
     76       2.5816      1.00000
     77       3.4717      0.73154
     78       3.5055      0.64727
     79       4.1437      0.00002
     80       4.1823      0.00001
     81       4.2656      0.00000
     82       5.7881      0.00000
     83       5.9876      0.00000
     84       6.0493      0.00000
     85       6.1622      0.00000
     86       6.4212      0.00000
     87       6.6150      0.00000
     88       6.6889      0.00000
     89       6.7298      0.00000
     90       6.8697      0.00000
     91       6.9601      0.00000
     92       6.9606      0.00000
     93       7.1015      0.00000
     94       7.1386      0.00000
     95       7.2100      0.00000
     96       7.3406      0.00000
     97       7.4162      0.00000

 k-point     4 :       0.5000    0.5000    0.0000
  band No.  band energies     occupation 
      1     -39.0307      1.00000
      2     -39.0306      1.00000
      3     -38.9977      1.00000
      4     -38.7812      1.00000
      5     -38.7133      1.00000
      6     -38.7116      1.00000
      7     -38.6919      1.00000
      8     -38.6731      1.00000
      9     -19.1896      1.00000
     10     -19.1741      1.00000
     11     -19.1495      1.00000
     12     -19.1036      1.00000
     13     -19.0983      1.00000
     14     -19.0594      1.00000
     15     -19.0514      1.00000
     16     -18.9776      1.00000
     17     -18.9604      1.00000
     18     -18.9580      1.00000
     19     -18.8530      1.00000
     20     -18.8375      1.00000
     21     -18.7537      1.00000
     22     -18.7472      1.00000
     23     -18.7441      1.00000
     24     -18.7266      1.00000
     25     -18.6888      1.00000
     26     -18.6792      1.00000
     27     -18.6637      1.00000
     28     -18.6502      1.00000
     29     -18.6499      1.00000
     30     -18.6399      1.00000
     31     -18.6371      1.00000
     32     -18.6309      1.00000
     33      -9.7878      1.00000
     34      -9.7320      1.00000
     35      -9.7267      1.00000
     36      -9.3133      1.00000
     37      -9.3124      1.00000
     38      -9.3048      1.00000
     39      -9.3038      1.00000
     40      -4.9778      1.00000
     41      -4.9378      1.00000
     42      -4.9343      1.00000
     43      -4.9276      1.00000
     44      -0.9442      1.00000
     45      -0.6930      1.00000
     46      -0.4405      1.00000
     47      -0.4160      1.00000
     48      -0.4115      1.00000
     49      -0.2758      1.00000
     50      -0.2634      1.00000
     51      -0.2595      1.00000
     52      -0.2496      1.00000
     53      -0.0613      1.00000
     54      -0.0291      1.00000
     55       0.0196      1.00000
     56       0.1558      1.00000
     57       0.1611      1.00000
     58       0.1742      1.00000
     59       0.8537      1.00000
     60       0.8754      1.00000
     61       1.2599      1.00000
     62       1.2721      1.00000
     63       1.2747      1.00000
     64       1.2764      1.00000
     65       1.4678      1.00000
     66       1.7548      1.00000
[...]
 -0.000  -0.000   0.000  -0.000  -0.935  -0.000   0.000   0.934   2.979   0.000   0.000  -1.624  -0.000  -1.661  -0.000  -0.000
  0.000   0.024   1.661   0.067  -0.000  -1.687  -0.070   0.000   0.000   4.560   0.021  -0.000  -1.657  -0.000  -2.581  -0.012
  0.011   0.062  -0.035  -0.262  -0.000   0.034   0.253   0.000   0.000   0.021   2.323   0.000  -0.001  -0.000  -0.012  -1.247
  0.000   0.000  -0.000   0.000   1.770   0.000  -0.000  -1.797  -1.624  -0.000   0.000   4.585   0.000   0.960   0.000  -0.000
  0.002   0.005  -0.954  -0.001   0.000   0.954   0.000  -0.000  -0.000  -1.657  -0.001   0.000   3.056   0.000   0.985   0.001
  0.000   0.000  -0.000   0.000   0.476   0.000  -0.000  -0.478  -1.661  -0.000  -0.000   0.960   0.000   0.935   0.000   0.000
 -0.000  -0.016  -0.798  -0.042   0.000   0.826   0.044  -0.000  -0.000  -2.581  -0.012   0.000   0.985   0.000   1.474   0.007
 -0.008  -0.038   0.022   0.231   0.000  -0.022  -0.218  -0.000  -0.000  -0.012  -1.247  -0.000   0.001   0.000   0.007   0.675
 -0.000  -0.000   0.000  -0.000  -0.844  -0.000   0.000   0.873   0.959   0.000  -0.000  -2.583  -0.000  -0.571  -0.000   0.000
 -0.001  -0.001   0.500   0.004  -0.000  -0.503  -0.004   0.000   0.000   0.986   0.001  -0.000  -1.703  -0.000  -0.589  -0.001
 -0.005   0.020  -0.001   0.223   0.000   0.000  -0.222  -0.000  -0.000   0.002  -0.043   0.000  -0.000   0.000  -0.001   0.023
 -0.000   0.000  -0.000   0.000   0.266   0.000  -0.000  -0.265  -0.043  -0.000   0.000   0.005   0.000   0.022   0.000  -0.000
 -0.000  -0.001  -0.129  -0.005   0.000   0.130   0.006  -0.000  -0.000   0.028  -0.002   0.000  -0.024   0.000  -0.017   0.001
 -0.004   0.026   0.006   0.185   0.000  -0.006  -0.184  -0.000  -0.000   0.005  -0.033   0.000  -0.001   0.000  -0.003   0.016
  0.000  -0.000   0.000  -0.000  -0.126  -0.000   0.000   0.128  -0.023   0.000  -0.000   0.029  -0.000   0.012  -0.000   0.000
  0.000  -0.001   0.269   0.001  -0.000  -0.268  -0.002   0.000  -0.000   0.009   0.002  -0.000  -0.048  -0.000  -0.005  -0.001
  0.000  -0.000  -0.000  -0.000   0.001   0.000   0.000  -0.002   0.002  -0.000   0.000  -0.001  -0.000  -0.002   0.000  -0.000
 total augmentation occupancy for first ion, spin component:           2
  0.000  -0.000   0.000  -0.000   0.000  -0.000   0.000  -0.000  -0.000   0.000  -0.000   0.000  -0.000   0.000  -0.000   0.000
 -0.000  -0.000   0.000  -0.000  -0.000  -0.000   0.000   0.000  -0.000   0.000  -0.000  -0.000  -0.000   0.000  -0.000   0.000
  0.000   0.000  -0.000  -0.000  -0.000   0.000   0.000   0.000   0.000   0.000   0.000  -0.000   0.000  -0.000  -0.000  -0.000
 -0.000  -0.000  -0.000   0.000   0.000   0.000  -0.000  -0.000   0.000   0.000  -0.000   0.000  -0.000  -0.000  -0.000   0.000
  0.000  -0.000  -0.000   0.000  -0.000   0.000  -0.000   0.000  -0.000  -0.000   0.000  -0.000  -0.000   0.000   0.000  -0.000
 -0.000  -0.000   0.000   0.000   0.000  -0.000  -0.000  -0.000  -0.000  -0.000  -0.000   0.000  -0.000   0.000   0.000   0.000
  0.000   0.000   0.000  -0.000  -0.000  -0.000   0.000   0.000  -0.000  -0.000   0.000  -0.000   0.000   0.000   0.000  -0.000
 -0.000   0.000   0.000  -0.000   0.000  -0.000   0.000  -0.000   0.000   0.000  -0.000   0.000   0.000  -0.000  -0.000   0.000
 -0.000  -0.000   0.000   0.000  -0.000  -0.000  -0.000   0.000   0.000  -0.000   0.000  -0.000   0.000  -0.000   0.000  -0.000
  0.000   0.000   0.000   0.000  -0.000  -0.000  -0.000   0.000  -0.000  -0.000  -0.000   0.000   0.000  -0.000   0.000  -0.000
 -0.000  -0.000   0.000  -0.000   0.000  -0.000   0.000  -0.000   0.000  -0.000   0.000  -0.000   0.000  -0.000  -0.000  -0.000
  0.000  -0.000  -0.000   0.000  -0.000   0.000  -0.000   0.000  -0.000   0.000  -0.000   0.000  -0.000  -0.000   0.000  -0.000
 -0.000  -0.000   0.000  -0.000  -0.000  -0.000   0.000   0.000   0.000   0.000   0.000  -0.000   0.000  -0.000  -0.000  -0.000
  0.000   0.000  -0.000  -0.000   0.000   0.000   0.000  -0.000  -0.000  -0.000  -0.000  -0.000  -0.000   0.000  -0.000   0.000
 -0.000  -0.000  -0.000  -0.000   0.000   0.000   0.000  -0.000   0.000   0.000  -0.000   0.000  -0.000  -0.000  -0.000   0.000
  0.000   0.000  -0.000   0.000  -0.000   0.000  -0.000   0.000  -0.000  -0.000  -0.000  -0.000  -0.000   0.000   0.000   0.000
 -0.000   0.000   0.000  -0.000   0.000  -0.000   0.000  -0.000   0.000  -0.000   0.000  -0.000   0.000   0.000  -0.000   0.000
  0.000   0.000  -0.000   0.000   0.000   0.000  -0.000  -0.000   0.000  -0.000  -0.000   0.000  -0.000  -0.000   0.000   0.000
 -0.000  -0.000  -0.000   0.000   0.000   0.000  -0.000  -0.000  -0.000   0.000  -0.000   0.000  -0.000   0.000  -0.000   0.000
  0.000  -0.000  -0.000   0.000  -0.000   0.000  -0.000   0.000  -0.000  -0.000  -0.000   0.000   0.000   0.000   0.000   0.000
  0.000   0.000   0.000  -0.000   0.000  -0.000   0.000  -0.000  -0.000  -0.000  -0.000   0.000  -0.000   0.000   0.000   0.000
 -0.000  -0.000  -0.000   0.000   0.000   0.000  -0.000  -0.000  -0.000   0.000  -0.000   0.000  -0.000   0.000  -0.000   0.000
 -0.000   0.000   0.000  -0.000   0.000  -0.000  -0.000  -0.000   0.000   0.000  -0.000  -0.000  -0.000  -0.000  -0.000   0.000
  0.000   0.000  -0.000   0.000  -0.000   0.000  -0.000   0.000   0.000   0.000   0.000  -0.000  -0.000  -0.000  -0.000   0.000
  0.000  -0.000  -0.000   0.000   0.000   0.000  -0.000  -0.000   0.000  -0.000   0.000  -0.000   0.000  -0.000   0.000  -0.000


------------------------ aborting loop because EDIFF is reached ----------------------------------------





 total charge     

# of ion       s       p       d       f       tot
--------------------------------------------------
    1        2.183   6.374   0.942   0.044   9.543
    2        2.183   6.370   0.944   0.043   9.540
    3        2.183   6.370   0.935   0.043   9.530
    4        2.183   6.370   0.935   0.043   9.530
    5        2.196   6.347   0.982   0.040   9.566
    6        2.196   6.347   0.982   0.040   9.566
    7        2.198   6.354   0.989   0.042   9.583
    8        2.183   6.360   0.947   0.042   9.532
    9        0.865   1.386   0.000   0.000   2.250
   10        0.864   1.377   0.000   0.000   2.241
   11        0.864   1.369   0.000   0.000   2.233
   12        0.864   1.369   0.000   0.000   2.233
   13        1.507   2.834   0.019   0.000   4.359
   14        1.507   2.834   0.019   0.000   4.359
   15        1.507   2.833   0.019   0.000   4.359
   16        1.508   2.833   0.019   0.000   4.360
   17        1.506   2.825   0.015   0.000   4.347
   18        1.506   2.827   0.016   0.000   4.349
   19        1.506   2.827   0.016   0.000   4.349
--------------------------------------------------
tot         31.510  76.208   7.777   0.337 115.831




 magnetization (x)

# of ion       s       p       d       f       tot
--------------------------------------------------
    1       -0.000  -0.000  -0.000   0.000  -0.000
    2        0.000   0.000   0.000  -0.000   0.000
    3        0.000  -0.000   0.000  -0.000   0.000
    4        0.000  -0.000   0.000  -0.000   0.000
    5        0.000   0.000   0.000  -0.000   0.000
    6        0.000   0.000   0.000  -0.000   0.000
    7       -0.000   0.000   0.000  -0.000   0.000
    8        0.000  -0.000   0.000  -0.000  -0.000
    9        0.000  -0.000   0.000   0.000  -0.000
   10        0.000  -0.000   0.000   0.000  -0.000
   11       -0.000  -0.000   0.000   0.000  -0.000
   12       -0.000  -0.000   0.000   0.000  -0.000
   13       -0.000   0.000  -0.000   0.000   0.000
   14       -0.000   0.000   0.000   0.000   0.000
   15       -0.000   0.000   0.000   0.000   0.000
   16        0.000   0.000   0.000   0.000   0.000
   17        0.000  -0.000   0.000   0.000   0.000
   18        0.000  -0.000   0.000   0.000   0.000
   19        0.000   0.000   0.000   0.000   0.000
--------------------------------------------------
tot          0.000  -0.000   0.000  -0.000   0.000


    CHARGE:  cpu time    0.4262: real time    0.4273
    FORLOC:  cpu time    0.0149: real time    0.0149
    FORNL :  cpu time    2.4259: real time    2.4396
    STRESS:  cpu time    7.3408: real time    7.3824
    FORCOR:  cpu time    0.2736: real time    0.2749
    FORHAR:  cpu time    0.0452: real time    0.0454
    MIXING:  cpu time    0.0085: real time    0.0086
    OFIELD:  cpu time    0.0000: real time    0.0000

  FORCE on cell =-STRESS in cart. coord.  units (eV):
  Direction    XX          YY          ZZ          XY          YZ          ZX
  --------------------------------------------------------------------------------------
  Alpha Z   490.14769   490.14769   490.14769
  Ewald     609.18135   612.83554 -6704.01788    -0.00066     1.68429     0.00126
  Hartree  3998.45675  4005.35282 -2766.13312    -0.00032     1.60378     0.00061
  E(xc)    -597.55926  -597.52722  -598.07356    -0.00000     0.01213     0.00000
  Local   -6746.75615 -6755.63840  7352.35708     0.00102    -3.64115    -0.00194
  n-local   537.74582   537.12996   541.08854     0.00006    -0.31832    -0.00007
  augment  -143.40642  -143.04342  -142.12302    -0.00000     0.06087     0.00001
  Kinetic  1847.59670  1844.32357  1827.20606    -0.00018     0.55394     0.00013
  Fock        0.00000     0.00000     0.00000     0.00000     0.00000     0.00000
  -------------------------------------------------------------------------------------
  Total      -4.59352    -6.41944     0.45178    -0.00009    -0.04446     0.00001
  in kB     -12.67957   -17.71971     1.24707    -0.00024    -0.12272     0.00003
  external pressure =       -9.72 kB  Pullay stress =        0.00 kB


 VOLUME and BASIS-vectors are now :
 -----------------------------------------------------------------------------
  energy-cutoff  :      520.00
  volume of cell :      580.43
      direct lattice vectors                 reciprocal lattice vectors
     7.770644000  0.000004000  0.000000000     0.128689463 -0.000000038  0.000000012
     0.000002000  6.729576000  0.000000000    -0.000000076  0.148597772  0.000000013
    -0.000001000 -0.000001000 11.099577000     0.000000000  0.000000000  0.090093523

  length of vectors
     7.770644000  6.729576000 11.099577000     0.128689463  0.148597772  0.090093523


 FORCES acting on ions
    electron-ion (+dipol)            ewald-force                    non-local-force                 convergence-correction
 -----------------------------------------------------------------------------------------------
   -.209E-03 -.470E+01 -.371E+03   0.194E-03 0.470E+01 0.367E+03   0.171E-04 0.672E-02 0.454E+01   0.301E-06 0.274E-03 0.113E-02
   0.225E-04 0.131E+01 -.337E+03   -.397E-04 -.124E+01 0.332E+03   0.156E-04 -.726E-01 0.471E+01   -.544E-07 -.720E-03 0.123E-02
   -.372E+01 0.166E+01 -.366E+03   0.383E+01 -.170E+01 0.361E+03   -.105E+00 0.360E-01 0.435E+01   -.141E-03 0.686E-04 0.121E-02
   0.372E+01 0.166E+01 -.366E+03   -.383E+01 -.170E+01 0.361E+03   0.105E+00 0.360E-01 0.435E+01   0.140E-03 0.687E-04 0.121E-02
   -.751E+02 -.385E+02 0.467E+03   0.734E+02 0.378E+02 -.460E+03   0.172E+01 0.747E+00 -.686E+01   -.559E-04 -.325E-03 -.265E-03
   0.751E+02 -.385E+02 0.467E+03   -.734E+02 0.378E+02 -.460E+03   -.172E+01 0.747E+00 -.686E+01   0.528E-04 -.327E-03 -.262E-03
   0.210E-03 0.691E+02 0.468E+03   -.199E-03 -.671E+02 -.462E+03   -.128E-04 -.200E+01 -.649E+01   -.478E-06 0.836E-03 0.108E-02
   -.936E-04 0.756E+01 0.430E+03   0.106E-03 -.813E+01 -.425E+03   -.109E-04 0.575E+00 -.535E+01   0.174E-07 0.227E-03 -.114E-02
   0.557E-04 0.991E+01 0.708E+01   -.507E-04 -.980E+01 -.745E+01   -.344E-05 -.110E+00 0.365E+00   -.236E-06 -.350E-03 0.241E-03
   0.159E-03 -.167E+02 0.234E+02   -.153E-03 0.166E+02 -.235E+02   -.370E-05 0.779E-01 0.910E-01   0.419E-06 0.234E-03 -.361E-04
   -.110E+02 0.345E+01 0.281E+02   0.110E+02 -.344E+01 -.282E+02   0.701E-01 -.775E-02 0.539E-01   0.716E-04 -.162E-04 0.324E-03
   0.110E+02 0.345E+01 0.281E+02   -.110E+02 -.344E+01 -.282E+02   -.702E-01 -.774E-02 0.539E-01   -.713E-04 -.165E-04 0.324E-03
   -.898E+01 -.411E+01 -.385E+03   0.901E+01 0.412E+01 0.387E+03   -.335E-01 -.979E-02 -.235E+01   0.224E-03 0.926E-04 0.120E-03
   0.898E+01 -.411E+01 -.385E+03   -.901E+01 0.412E+01 0.387E+03   0.335E-01 -.979E-02 -.235E+01   -.224E-03 0.925E-04 0.120E-03
   -.337E-04 0.662E+01 -.386E+03   0.336E-04 -.666E+01 0.389E+03   0.142E-06 0.323E-01 -.234E+01   -.721E-07 -.265E-03 0.201E-03
   -.405E-04 0.166E+01 -.379E+03   0.406E-04 -.165E+01 0.381E+03   -.113E-05 -.379E-02 -.236E+01   0.596E-07 0.100E-03 0.716E-03
   0.670E-05 -.239E+01 0.356E+03   -.724E-05 0.234E+01 -.358E+03   0.353E-06 0.521E-01 0.244E+01   0.195E-08 -.964E-04 -.816E-03
   -.243E+02 0.130E+01 0.355E+03   0.242E+02 -.128E+01 -.357E+03   0.210E-01 -.167E-01 0.243E+01   -.264E-03 0.164E-03 -.482E-03
   0.243E+02 0.130E+01 0.355E+03   -.242E+02 -.128E+01 -.357E+03   -.210E-01 -.167E-01 0.243E+01   0.264E-03 0.164E-03 -.481E-03
 -----------------------------------------------------------------------------------------------
   -.227E-05 -.610E-01 0.913E+01   -.213E-13 0.437E-13 0.000E+00   0.122E-04 0.562E-01 -.914E+01   -.422E-05 0.207E-03 0.443E-02


 POSITION                                       TOTAL-FORCE (eV/Angst)
 -----------------------------------------------------------------------------------
      0.00000      2.25680      1.33241         0.000002      0.005945     -0.001470
      3.88532      2.24926      1.27615        -0.000002     -0.007042     -0.014678
      1.94215      5.59806      1.33018        -0.003268      0.000780     -0.008225
      5.82850      5.59807      1.33018         0.003269      0.000780     -0.008222
      1.86281      1.08644      9.85525         0.006369     -0.004117      0.006506
      5.90783      1.08645      9.85525        -0.006369     -0.004117      0.006505
      3.88532      4.58375      9.85214        -0.000003      0.004579     -0.000109
      0.00000      4.45814      9.79742         0.000002      0.004240      0.001094
      0.00000      0.02701     -0.02741         0.000001      0.002062      0.000740
      3.88532     -0.01084     -0.03248         0.000002     -0.004752     -0.001067
      1.94225      3.35843     -0.04075        -0.000081      0.000017     -0.001125
      5.82840      3.35843     -0.04075         0.000082      0.000019     -0.001123
      1.95095      1.12382      3.46009        -0.003413      0.000739      0.001409
      5.81970      1.12382      3.46009         0.003411      0.000738      0.001409
      3.88532      4.47846      3.46503        -0.000000     -0.001307      0.002056
      0.00000      4.49060      3.47899        -0.000001      0.004054      0.017361
      0.00000      2.22856      7.59944        -0.000000     -0.001949     -0.006313
      2.00305      5.61389      7.60884        -0.001306     -0.000334      0.002626
      5.76760      5.61389      7.60884         0.001307     -0.000334      0.002626
 -----------------------------------------------------------------------------------
    total drift:                                0.000006     -0.004657     -0.008263


--------------------------------------------------------------------------------------------------------



  FREE ENERGIE OF THE ION-ELECTRON SYSTEM (eV)
  ---------------------------------------------------
  free  energy   TOTEN  =      -117.09212261 eV

  energy  without entropy=     -117.01509938  energy(sigma->0) =     -117.05361099

 d Force = 0.2793897E-04[ 0.228E-05, 0.536E-04]  d Energy = 0.3002476E-04-0.209E-05
 d Force = 0.1197248E+01[ 0.120E+01, 0.120E+01]  d Ewald  = 0.1197248E+01-0.475E-07


--------------------------------------------------------------------------------------------------------


    POTLOK:  cpu time    0.2998: real time    0.3013


--------------------------------------------------------------------------------------------------------


 stress matrix after NEB project (eV)
     -4.59352     -0.00009      0.00001
     -0.00009     -6.41944     -0.04446
      0.00001     -0.04446      0.45178
  FORCES: max atom, RMS     0.017828    0.007761
  FORCE total and by dimension    0.033830    0.017361
  Stress total and by dimension    7.906811    6.419440


--------------------------------------------------------------------------------------------------------


  
 reached required accuracy - stopping structural energy minimisation
     LOOP+:  cpu time   64.2230: real time   64.5970
    4ORBIT:  cpu time    0.0000: real time    0.0000



 total charge     

# of ion       s       p       d       f       tot
--------------------------------------------------
    1        2.183   6.374   0.942   0.044   9.543
    2        2.183   6.370   0.944   0.043   9.540
    3        2.183   6.370   0.935   0.043   9.530
    4        2.183   6.370   0.935   0.043   9.530
    5        2.196   6.347   0.982   0.040   9.566
    6        2.196   6.347   0.982   0.040   9.566
    7        2.198   6.354   0.989   0.042   9.583
    8        2.183   6.360   0.947   0.042   9.532
    9        0.865   1.386   0.000   0.000   2.250
   10        0.864   1.377   0.000   0.000   2.241
   11        0.864   1.369   0.000   0.000   2.233
   12        0.864   1.369   0.000   0.000   2.233
   13        1.507   2.834   0.019   0.000   4.359
   14        1.507   2.834   0.019   0.000   4.359
   15        1.507   2.833   0.019   0.000   4.359
   16        1.508   2.833   0.019   0.000   4.360
   17        1.506   2.825   0.015   0.000   4.347
   18        1.506   2.827   0.016   0.000   4.349
   19        1.506   2.827   0.016   0.000   4.349
--------------------------------------------------
tot         31.510  76.208   7.777   0.337 115.831




 magnetization (x)

# of ion       s       p       d       f       tot
--------------------------------------------------
    1       -0.000  -0.000  -0.000   0.000  -0.000
    2        0.000   0.000   0.000  -0.000   0.000
    3        0.000  -0.000   0.000  -0.000   0.000
    4        0.000  -0.000   0.000  -0.000   0.000
    5        0.000   0.000   0.000  -0.000   0.000
    6        0.000   0.000   0.000  -0.000   0.000
    7       -0.000   0.000   0.000  -0.000   0.000
    8        0.000  -0.000   0.000  -0.000  -0.000
    9        0.000  -0.000   0.000   0.000  -0.000
   10        0.000  -0.000   0.000   0.000  -0.000
   11       -0.000  -0.000   0.000   0.000  -0.000
   12       -0.000  -0.000   0.000   0.000  -0.000
   13       -0.000   0.000  -0.000   0.000   0.000
   14       -0.000   0.000   0.000   0.000   0.000
   15       -0.000   0.000   0.000   0.000   0.000
   16        0.000   0.000   0.000   0.000   0.000
   17        0.000  -0.000   0.000   0.000   0.000
   18        0.000  -0.000   0.000   0.000   0.000
   19        0.000   0.000   0.000   0.000   0.000
--------------------------------------------------
tot          0.000  -0.000   0.000  -0.000   0.000



 total amount of memory used by VASP MPI-rank0    84564. kBytes
=======================================================================

   base      :      30000. kBytes
   nonlr-proj:       4414. kBytes
   fftplans  :       5705. kBytes
   grid      :      15123. kBytes
   one-center:        120. kBytes
   wavefun   :      29202. kBytes

  
  
 General timing and accounting informations for this job:
 ========================================================
  
                  Total CPU time used (sec):     1117.925
                            User time (sec):      981.647
                          System time (sec):      136.279
                         Elapsed time (sec):     1126.415
  
                   Maximum memory used (kb):      183464.
                   Average memory used (kb):           0.
  
                          Minor page faults:        89655
                          Major page faults:            0
                 Voluntary context switches:         7023
