<?xml version="1.0" encoding="ISO-8859-1"?>
<modeling>
 <generator>
  <i name="program" type="string">vasp </i>
  <i name="version" type="string">5.4.4.18Apr17-6-g9f103f2a35  </i>
  <i name="subversion" type="string">(build Feb  5 2022 00:56:52) complex            parallel </i>
  <i name="platform" type="string">LinuxGNU </i>
  <i name="date" type="string">2022 02 08 </i>
  <i name="time" type="string">01:56:04 </i>
 </generator>
 <incar>
  <i type="string" name="PREC">accurate</i>
  <i type="string" name="ALGO"> Normal</i>
  <i type="int" name="ISPIN">     2</i>
  <i type="int" name="ICHARG">     1</i>
  <i type="int" name="NELM">   200</i>
  <i type="int" name="NELMIN">     6</i>
  <i type="int" name="IBRION">    -1</i>
  <i name="EDIFF">      0.00001000</i>
  <i type="int" name="NSW">     0</i>
  <i type="int" name="ISIF">     3</i>
  <i type="int" name="ISYM">     0</i>
  <i name="ENCUT">    520.00000000</i>
  <v name="MAGMOM">      0.60000000      0.60000000      0.60000000      0.60000000      0.60000000</v>
  <i type="string" name="LREAL"> Auto</i>
  <i type="int" name="ISMEAR">    -5</i>
  <i name="SIGMA">      0.05000000</i>
  <i name="KSPACING">      0.40000000</i>
  <i type="logical" name="LWAVE"> F  </i>
  <i type="int" name="LORBIT">    11</i>
  <v type="int" name="KPOINT_BSE">    -1     0     0     0</v>
  <i type="int" name="NELM">   200</i>
 </incar>
 <structure name="primitive_cell" >
  <crystal>
   <varray name="basis" >
    <v>       3.88532200       0.00000200      -0.00000000 </v>
    <v>      -1.94266000       3.36478700      -0.00000000 </v>
    <v>      -0.00000100      -0.00000100      11.09957700 </v>
   </varray>
   <i name="volume">    145.10793174 </i>
   <varray name="rec_basis" >
    <v>       0.25737885       0.14859770       0.00000004 </v>
    <v>      -0.00000015       0.29719554       0.00000003 </v>
    <v>       0.00000000       0.00000000       0.09009352 </v>
   </varray>
  </crystal>
  <varray name="positions" >
   <v>       0.33333300      -0.33333300       0.11777000 </v>
   <v>       0.00000000       0.00000000       0.00000000 </v>
   <v>      -0.33333200       0.33333400       0.31279500 </v>
   <v>      -0.33333300       0.33333300      -0.11777000 </v>
   <v>       0.33333300      -0.33333300      -0.31279500 </v>
  </varray>
 </structure>
 <varray name="primitive_index" >
  <v type="int" >        1 </v>
  <v type="int" >        3 </v>
  <v type="int" >        5 </v>
  <v type="int" >        2 </v>
  <v type="int" >        4 </v>
 </varray>
 <kpoints>
  <generation param="Gamma">
   <v type="int" name="divisions">       5        5        2 </v>
   <v name="usershift">      0.00000000       0.00000000       0.00000000 </v>
   <v name="genvec1">      0.20000000       0.00000000       0.00000000 </v>
   <v name="genvec2">      0.00000000       0.20000000       0.00000000 </v>
   <v name="genvec3">      0.00000000       0.00000000       0.50000000 </v>
   <v name="shift">      0.00000000       0.00000000       0.00000000 </v>
  </generation>
  <varray name="kpointlist" >
   <v>       0.00000000       0.00000000       0.00000000 </v>
   <v>       0.20000000       0.00000000       0.00000000 </v>
   <v>       0.40000000       0.00000000       0.00000000 </v>
   <v>       0.00000000       0.20000000       0.00000000 </v>
   <v>       0.20000000       0.20000000       0.00000000 </v>
   <v>       0.40000000       0.20000000       0.00000000 </v>
   <v>      -0.40000000       0.20000000       0.00000000 </v>
   <v>      -0.20000000       0.20000000       0.00000000 </v>
   <v>       0.00000000       0.40000000       0.00000000 </v>
   <v>       0.20000000       0.40000000       0.00000000 </v>
   <v>       0.40000000       0.40000000       0.00000000 </v>
   <v>      -0.40000000       0.40000000       0.00000000 </v>
   <v>      -0.20000000       0.40000000       0.00000000 </v>
   <v>       0.00000000       0.00000000       0.50000000 </v>
   <v>       0.20000000       0.00000000       0.50000000 </v>
   <v>       0.40000000       0.00000000       0.50000000 </v>
   <v>       0.00000000       0.20000000       0.50000000 </v>
   <v>       0.20000000       0.20000000       0.50000000 </v>
   <v>       0.40000000       0.20000000       0.50000000 </v>
   <v>      -0.40000000       0.20000000       0.50000000 </v>
   <v>      -0.20000000       0.20000000       0.50000000 </v>
   <v>       0.00000000       0.40000000       0.50000000 </v>
   <v>       0.20000000       0.40000000       0.50000000 </v>
   <v>       0.40000000       0.40000000       0.50000000 </v>
   <v>      -0.40000000       0.40000000       0.50000000 </v>
   <v>      -0.20000000       0.40000000       0.50000000 </v>
  </varray>
  <varray name="weights" >
   <v>       0.02000000 </v>
   <v>       0.04000000 </v>
   <v>       0.04000000 </v>
   <v>       0.04000000 </v>
   <v>       0.04000000 </v>
   <v>       0.04000000 </v>
   <v>       0.04000000 </v>
   <v>       0.04000000 </v>
   <v>       0.04000000 </v>
   <v>       0.04000000 </v>
   <v>       0.04000000 </v>
   <v>       0.04000000 </v>
   <v>       0.04000000 </v>
   <v>       0.02000000 </v>
   <v>       0.04000000 </v>
   <v>       0.04000000 </v>
   <v>       0.04000000 </v>
   <v>       0.04000000 </v>
   <v>       0.04000000 </v>
   <v>       0.04000000 </v>
   <v>       0.04000000 </v>
   <v>       0.04000000 </v>
   <v>       0.04000000 </v>
   <v>       0.04000000 </v>
   <v>       0.04000000 </v>
   <v>       0.04000000 </v>
  </varray>
  <varray name="tetrahedronlist"  type="int" >
   <v type="int" >        2        2        4        5       17 </v>
   <v type="int" >        2        1        2        4       17 </v>
   <v type="int" >        2        1        2       14       17 </v>
   <v type="int" >        2        2        5       17       18 </v>
   <v type="int" >        2        2       15       17       18 </v>
   <v type="int" >        2        2       14       15       17 </v>
   <v type="int" >        2        3        5        6       18 </v>
   <v type="int" >        2        2        3        5       18 </v>
   <v type="int" >        2        2        3       15       18 </v>
   <v type="int" >        2        3        6       18       19 </v>
   <v type="int" >        2        3       16       18       19 </v>
   <v type="int" >        2        3       15       16       18 </v>
   <v type="int" >        2        3        6        7       19 </v>
   <v type="int" >        2        3        3        6       19 </v>
   <v type="int" >        2        3        3       16       19 </v>
   <v type="int" >        2        3        7       19       20 </v>
   <v type="int" >        2        3       16       19       20 </v>
   <v type="int" >        2        3       16       16       19 </v>
   <v type="int" >        2        2        7        8       20 </v>
   <v type="int" >        2        2        3        7       20 </v>
   <v type="int" >        2        2        3       16       20 </v>
   <v type="int" >        2        2        8       20       21 </v>
   <v type="int" >        2        2       15       20       21 </v>
   <v type="int" >        2        2       15       16       20 </v>
   <v type="int" >        2        1        4        8       21 </v>
   <v type="int" >        2        1        2        8       21 </v>
   <v type="int" >        2        1        2       15       21 </v>
   <v type="int" >        2        1        4       17       21 </v>
   <v type="int" >        2        1       14       17       21 </v>
   <v type="int" >        2        1       14       15       21 </v>
   <v type="int" >        2        5        9       10       22 </v>
   <v type="int" >        2        4        5        9       22 </v>
   <v type="int" >        2        4        5       17       22 </v>
   <v type="int" >        2        5       10       22       23 </v>
   <v type="int" >        2        5       18       22       23 </v>
   <v type="int" >        2        5       17       18       22 </v>
   <v type="int" >        2        6       10       11       23 </v>
   <v type="int" >        2        5        6       10       23 </v>
   <v type="int" >        2        5        6       18       23 </v>
   <v type="int" >        2        6       11       23       24 </v>
   <v type="int" >        2        6       19       23       24 </v>
   <v type="int" >        2        6       18       19       23 </v>
   <v type="int" >        2        7       11       12       24 </v>
   <v type="int" >        2        6        7       11       24 </v>
   <v type="int" >        2        6        7       19       24 </v>
   <v type="int" >        2        7       12       24       25 </v>
   <v type="int" >        2        7       20       24       25 </v>
   <v type="int" >        2        7       19       20       24 </v>
   <v type="int" >        2        8       12       13       25 </v>
   <v type="int" >        2        7        8       12       25 </v>
   <v type="int" >        2        7        8       20       25 </v>
   <v type="int" >        2        8       13       25       26 </v>
   <v type="int" >        2        8       21       25       26 </v>
   <v type="int" >        2        8       20       21       25 </v>
   <v type="int" >        2        4        9       13       26 </v>
   <v type="int" >        2        4        8       13       26 </v>
   <v type="int" >        2        4        8       21       26 </v>
   <v type="int" >        2        4        9       22       26 </v>
   <v type="int" >        2        4       17       22       26 </v>
   <v type="int" >        2        4       17       21       26 </v>
   <v type="int" >        2        9       10       13       22 </v>
   <v type="int" >        2        9        9       10       22 </v>
   <v type="int" >        2        9       10       22       22 </v>
   <v type="int" >        2       10       13       22       26 </v>
   <v type="int" >        2       10       22       23       26 </v>
   <v type="int" >        2       10       22       22       23 </v>
   <v type="int" >        2       11       12       13       26 </v>
   <v type="int" >        2       10       11       13       26 </v>
   <v type="int" >        2       10       11       23       26 </v>
   <v type="int" >        2       11       12       25       26 </v>
   <v type="int" >        2       11       24       25       26 </v>
   <v type="int" >        2       11       23       24       26 </v>
   <v type="int" >        4       11       12       12       25 </v>
   <v type="int" >        4       11       12       24       25 </v>
   <v type="int" >        4       12       24       25       25 </v>
   <v type="int" >        2       10       11       13       24 </v>
   <v type="int" >        2       11       12       13       24 </v>
   <v type="int" >        2       12       13       24       25 </v>
   <v type="int" >        2       10       13       23       24 </v>
   <v type="int" >        2       13       23       24       26 </v>
   <v type="int" >        2       13       24       25       26 </v>
   <v type="int" >        2        9        9       10       23 </v>
   <v type="int" >        2        9       10       13       23 </v>
   <v type="int" >        2        9       13       23       26 </v>
   <v type="int" >        2        9        9       22       23 </v>
   <v type="int" >        2        9       22       22       23 </v>
   <v type="int" >        2        9       22       23       26 </v>
   <v type="int" >        2        4        8       13       17 </v>
   <v type="int" >        2        4        9       13       17 </v>
   <v type="int" >        2        9       13       17       22 </v>
   <v type="int" >        2        8       13       17       21 </v>
   <v type="int" >        2       13       17       21       26 </v>
   <v type="int" >        2       13       17       22       26 </v>
   <v type="int" >        2        7        8       12       21 </v>
   <v type="int" >        2        8       12       13       21 </v>
   <v type="int" >        2       12       13       21       26 </v>
   <v type="int" >        2        7       12       20       21 </v>
   <v type="int" >        2       12       20       21       25 </v>
   <v type="int" >        2       12       21       25       26 </v>
   <v type="int" >        2        6        7       11       20 </v>
   <v type="int" >        2        7       11       12       20 </v>
   <v type="int" >        2       11       12       20       25 </v>
   <v type="int" >        2        6       11       19       20 </v>
   <v type="int" >        2       11       19       20       24 </v>
   <v type="int" >        2       11       20       24       25 </v>
   <v type="int" >        2        5        6       10       19 </v>
   <v type="int" >        2        6       10       11       19 </v>
   <v type="int" >        2       10       11       19       24 </v>
   <v type="int" >        2        5       10       18       19 </v>
   <v type="int" >        2       10       18       19       23 </v>
   <v type="int" >        2       10       19       23       24 </v>
   <v type="int" >        2        4        5        9       18 </v>
   <v type="int" >        2        5        9       10       18 </v>
   <v type="int" >        2        9       10       18       23 </v>
   <v type="int" >        2        4        9       17       18 </v>
   <v type="int" >        2        9       17       18       22 </v>
   <v type="int" >        2        9       18       22       23 </v>
   <v type="int" >        2        1        2        8       14 </v>
   <v type="int" >        2        1        4        8       14 </v>
   <v type="int" >        2        4        8       14       17 </v>
   <v type="int" >        2        2        8       14       15 </v>
   <v type="int" >        2        8       14       15       21 </v>
   <v type="int" >        2        8       14       17       21 </v>
   <v type="int" >        2        2        3        7       15 </v>
   <v type="int" >        2        2        7        8       15 </v>
   <v type="int" >        2        7        8       15       21 </v>
   <v type="int" >        2        3        7       15       16 </v>
   <v type="int" >        2        7       15       16       20 </v>
   <v type="int" >        2        7       15       20       21 </v>
   <v type="int" >        2        3        3        6       16 </v>
   <v type="int" >        2        3        6        7       16 </v>
   <v type="int" >        2        6        7       16       20 </v>
   <v type="int" >        2        3        6       16       16 </v>
   <v type="int" >        2        6       16       16       19 </v>
   <v type="int" >        2        6       16       19       20 </v>
   <v type="int" >        2        2        3        5       16 </v>
   <v type="int" >        2        3        5        6       16 </v>
   <v type="int" >        2        5        6       16       19 </v>
   <v type="int" >        2        2        5       15       16 </v>
   <v type="int" >        2        5       15       16       18 </v>
   <v type="int" >        2        5       16       18       19 </v>
   <v type="int" >        2        1        2        4       15 </v>
   <v type="int" >        2        2        4        5       15 </v>
   <v type="int" >        2        4        5       15       18 </v>
   <v type="int" >        2        1        4       14       15 </v>
   <v type="int" >        2        4       14       15       17 </v>
   <v type="int" >        2        4       15       17       18 </v>
  </varray>
  <i name="volumeweight">      0.00333333 </i>
 </kpoints>
 <parameters>
  <separator name="general" >
   <i type="string" name="SYSTEM">unknown system</i>
   <i type="logical" name="LCOMPAT"> F  </i>
  </separator>
  <separator name="electronic" >
   <i type="string" name="PREC">accura</i>
   <i name="ENMAX">    520.00000000</i>
   <i name="ENAUG">    644.87300000</i>
   <i name="EDIFF">      0.00001000</i>
   <i type="int" name="IALGO">    38</i>
   <i type="int" name="IWAVPR">    10</i>
   <i type="int" name="NBANDS">    26</i>
   <i name="NELECT">     40.00000000</i>
   <i type="int" name="TURBO">     0</i>
   <i type="int" name="IRESTART">     0</i>
   <i type="int" name="NREBOOT">     0</i>
   <i type="int" name="NMIN">     0</i>
   <i name="EREF">      0.00000000</i>
   <separator name="electronic smearing" >
    <i type="int" name="ISMEAR">    -5</i>
    <i name="SIGMA">      0.05000000</i>
    <i name="KSPACING">      0.40000000</i>
    <i type="logical" name="KGAMMA"> T  </i>
   </separator>
   <separator name="electronic projectors" >
    <i type="logical" name="LREAL"> T  </i>
    <v name="ROPT">     -0.00025000     -0.00025000     -0.00025000</v>
    <i type="int" name="LMAXPAW">  -100</i>
    <i type="int" name="LMAXMIX">     2</i>
    <i type="logical" name="NLSPLINE"> F  </i>
   </separator>
   <separator name="electronic startup" >
    <i type="int" name="ISTART">     0</i>
    <i type="int" name="ICHARG">     1</i>
    <i type="int" name="INIWAV">     1</i>
   </separator>
   <separator name="electronic spin" >
    <i type="int" name="ISPIN">     2</i>
    <i type="logical" name="LNONCOLLINEAR"> F  </i>
    <v name="MAGMOM">      0.60000000      0.60000000      0.60000000      0.60000000      0.60000000</v>
    <i name="NUPDOWN">     -1.00000000</i>
    <i type="logical" name="LSORBIT"> F  </i>
    <v name="SAXIS">      0.00000000      0.00000000      1.00000000</v>
    <i type="logical" name="LSPIRAL"> F  </i>
    <v name="QSPIRAL">      0.00000000      0.00000000      0.00000000</v>
    <i type="logical" name="LZEROZ"> F  </i>
   </separator>
   <separator name="electronic exchange-correlation" >
    <i type="logical" name="LASPH"> F  </i>
    <i type="logical" name="LMETAGGA"> F  </i>
   </separator>
   <separator name="electronic convergence" >
    <i type="int" name="NELM">   200</i>
    <i type="int" name="NELMDL">    -5</i>
    <i type="int" name="NELMIN">     6</i>
    <i name="ENINI">    520.00000000</i>
    <separator name="electronic convergence detail" >
     <i type="logical" name="LDIAG"> T  </i>
     <i type="logical" name="LSUBROT"> F  </i>
     <i name="WEIMIN">      0.00000000</i>
     <i name="EBREAK">      0.00000010</i>
     <i name="DEPER">      0.30000000</i>
     <i type="int" name="NRMM">     4</i>
     <i name="TIME">      0.40000000</i>
    </separator>
   </separator>
   <separator name="electronic mixer" >
    <i name="AMIX">      0.40000000</i>
    <i name="BMIX">      1.00000000</i>
    <i name="AMIN">      0.10000000</i>
    <i name="AMIX_MAG">      1.60000000</i>
    <i name="BMIX_MAG">      1.00000000</i>
    <separator name="electronic mixer details" >
     <i type="int" name="IMIX">     4</i>
     <i type="logical" name="MIXFIRST"> F  </i>
     <i type="int" name="MAXMIX">   -45</i>
     <i name="WC">    100.00000000</i>
     <i type="int" name="INIMIX">     1</i>
     <i type="int" name="MIXPRE">     1</i>
     <i type="int" name="MREMOVE">     5</i>
    </separator>
   </separator>
   <separator name="electronic dipolcorrection" >
    <i type="logical" name="LDIPOL"> F  </i>
    <i type="logical" name="LMONO"> F  </i>
    <i type="int" name="IDIPOL">     0</i>
    <i name="EPSILON">      1.00000000</i>
    <v name="DIPOL">   -100.00000000   -100.00000000   -100.00000000</v>
    <i name="EFIELD">      0.00000000</i>
   </separator>
  </separator>
  <separator name="grids" >
   <i type="int" name="NGX">    30</i>
   <i type="int" name="NGY">    30</i>
   <i type="int" name="NGZ">    84</i>
   <i type="int" name="NGXF">    60</i>
   <i type="int" name="NGYF">    60</i>
   <i type="int" name="NGZF">   168</i>
   <i type="logical" name="ADDGRID"> F  </i>
  </separator>
  <separator name="ionic" >
   <i type="int" name="NSW">     0</i>
   <i type="int" name="IBRION">    -1</i>
   <i type="int" name="MDALGO">     0</i>
   <i type="int" name="ISIF">     3</i>
   <i name="PSTRESS">      0.00000000</i>
   <i name="EDIFFG">      0.00010000</i>
   <i type="int" name="NFREE">     0</i>
   <i name="POTIM">      0.50000000</i>
   <i name="SMASS">     -3.00000000</i>
   <i name="SCALEE">      1.00000000</i>
  </separator>
  <separator name="ionic md" >
   <i name="TEBEG">      0.00010000</i>
   <i name="TEEND">      0.00010000</i>
   <i type="int" name="NBLOCK">     1</i>
   <i type="int" name="KBLOCK">     1</i>
   <i type="int" name="NPACO">   256</i>
   <i name="APACO">     16.00000000</i>
  </separator>
  <separator name="symmetry" >
   <i type="int" name="ISYM">     0</i>
   <i name="SYMPREC">      0.00001000</i>
  </separator>
  <separator name="dos" >
   <i type="int" name="LORBIT">    11</i>
   <v name="RWIGS">     -1.00000000     -1.00000000     -1.00000000</v>
   <i type="int" name="NEDOS">   301</i>
   <i name="EMIN">     10.00000000</i>
   <i name="EMAX">    -10.00000000</i>
   <i name="EFERMI">      0.00000000</i>
  </separator>
  <separator name="writing" >
   <i type="int" name="NWRITE">     2</i>
   <i type="logical" name="LWAVE"> F  </i>
   <i type="logical" name="LDOWNSAMPLE"> F  </i>
   <i type="logical" name="LCHARG"> T  </i>
   <i type="logical" name="LPARD"> F  </i>
   <i type="logical" name="LVTOT"> F  </i>
   <i type="logical" name="LVHAR"> F  </i>
   <i type="logical" name="LELF"> F  </i>
   <i type="logical" name="LOPTICS"> F  </i>
   <v name="STM">      0.00000000      0.00000000      0.00000000      0.00000000      0.00000000      0.00000000      0.00000000</v>
  </separator>
  <separator name="performance" >
   <i type="int" name="NPAR">     1</i>
   <i type="int" name="NSIM">     4</i>
   <i type="int" name="NBLK">    -1</i>
   <i type="logical" name="LPLANE"> T  </i>
   <i type="logical" name="LSCALAPACK"> T  </i>
   <i type="logical" name="LSCAAWARE"> F  </i>
   <i type="logical" name="LSCALU"> F  </i>
   <i type="logical" name="LASYNC"> F  </i>
   <i type="logical" name="LORBITALREAL"> F  </i>
  </separator>
  <separator name="miscellaneous" >
   <i type="int" name="IDIOT">     3</i>
   <i type="int" name="ISPECIAL">     0</i>
   <i type="logical" name="LMUSIC"> F  </i>
   <v name="POMASS">     88.90600000     12.01100000    126.90400000</v>
   <v name="DARWINR">      0.00000000      0.00000000      0.00000000</v>
   <v name="DARWINV">      1.00000000      1.00000000      1.00000000</v>
   <i type="logical" name="LCORR"> T  </i>
  </separator>
  <i type="logical" name="GGA_COMPAT"> T  </i>
  <i type="logical" name="LBERRY"> F  </i>
  <i type="int" name="ICORELEVEL">     0</i>
  <i type="logical" name="LDAU"> F  </i>
  <i type="int" name="I_CONSTRAINED_M">     0</i>
  <separator name="electronic exchange-correlation" >
   <i type="string" name="GGA">--</i>
   <i type="int" name="VOSKOWN">     0</i>
   <i type="logical" name="LHFCALC"> F  </i>
   <i type="string" name="PRECFOCK"></i>
   <i type="logical" name="LSYMGRAD"> F  </i>
   <i type="logical" name="LHFONE"> F  </i>
   <i type="logical" name="LRHFCALC"> F  </i>
   <i type="logical" name="LTHOMAS"> F  </i>
   <i type="logical" name="LMODELHF"> F  </i>
   <i name="ENCUT4O">     -1.00000000</i>
   <i type="int" name="EXXOEP">     0</i>
   <i type="int" name="FOURORBIT">     0</i>
   <i name="AEXX">      0.00000000</i>
   <i name="HFALPHA">      0.00000000</i>
   <i name="MCALPHA">      0.00000000</i>
   <i name="ALDAX">      1.00000000</i>
   <i name="AGGAX">      1.00000000</i>
   <i name="ALDAC">      1.00000000</i>
   <i name="AGGAC">      1.00000000</i>
   <i type="int" name="NKREDX">     1</i>
   <i type="int" name="NKREDY">     1</i>
   <i type="int" name="NKREDZ">     1</i>
   <i type="logical" name="SHIFTRED"> F  </i>
   <i type="logical" name="ODDONLY"> F  </i>
   <i type="logical" name="EVENONLY"> F  </i>
   <i type="int" name="LMAXFOCK">     0</i>
   <i type="int" name="NMAXFOCKAE">     0</i>
   <i type="logical" name="LFOCKAEDFT"> F  </i>
   <i name="HFSCREEN">      0.00000000</i>
   <i name="HFSCREENC">      0.00000000</i>
   <i type="int" name="NBANDSGWLOW">     0</i>
  </separator>
  <separator name="vdW DFT" >
   <i type="logical" name="LUSE_VDW"> F  </i>
   <i name="Zab_VDW">     -0.84910000</i>
   <i name="PARAM1">      0.12340000</i>
   <i name="PARAM2">      1.00000000</i>
   <i name="PARAM3">      0.00000000</i>
  </separator>
  <separator name="model GW" >
   <i type="int" name="MODEL_GW">     0</i>
   <i name="MODEL_EPS0">     17.41295181</i>
   <i name="MODEL_ALPHA">      1.00000000</i>
  </separator>
  <separator name="linear response parameters" >
   <i type="logical" name="LEPSILON"> F  </i>
   <i type="logical" name="LRPA"> F  </i>
   <i type="logical" name="LNABLA"> F  </i>
   <i type="logical" name="LVEL"> F  </i>
   <i type="int" name="KINTER">     0</i>
   <i name="CSHIFT">      0.10000000</i>
   <i name="OMEGAMAX">     -1.00000000</i>
   <i name="DEG_THRESHOLD">      0.00200000</i>
   <i name="RTIME">     -0.10000000</i>
   <i name="WPLASMAI">      0.00000000</i>
   <v name="DFIELD">      0.00000000      0.00000000      0.00000000</v>
   <v name="WPLASMA">      0.00000000      0.00000000      0.00000000      0.00000000      0.00000000      0.00000000      0.00000000      0.00000000      0.00000000</v>
  </separator>
  <separator name="orbital magnetization" >
   <i type="logical" name="NUCIND"> F  </i>
   <v name="MAGPOS">      0.00000000      0.00000000      0.00000000</v>
   <i type="logical" name="LNICSALL"> T  </i>
   <i type="logical" name="ORBITALMAG"> F  </i>
   <i type="logical" name="LMAGBLOCH"> F  </i>
   <i type="logical" name="LCHIMAG"> F  </i>
   <i type="logical" name="LGAUGE"> T  </i>
   <i type="int" name="MAGATOM">     0</i>
   <v name="MAGDIPOL">      0.00000000      0.00000000      0.00000000</v>
   <v name="AVECCONST">      0.00000000      0.00000000      0.00000000</v>
  </separator>
  <separator name="response functions" >
   <i type="logical" name="LADDER"> F  </i>
   <i type="logical" name="LRPAFORCE"> F  </i>
   <i type="logical" name="LFXC"> F  </i>
   <i type="logical" name="LHARTREE"> T  </i>
   <i type="int" name="IBSE">     0</i>
   <v type="int" name="KPOINT">    -1     0     0     0</v>
   <i type="logical" name="LTCTE"> F  </i>
   <i type="logical" name="LTETE"> F  </i>
   <i type="logical" name="LTRIPLET"> F  </i>
   <i type="logical" name="LFXCEPS"> F  </i>
   <i type="logical" name="LFXHEG"> F  </i>
   <i type="int" name="NATURALO">     2</i>
   <i type="logical" name="L2ORDER"> F  </i>
   <i type="logical" name="LMP2LT"> F  </i>
   <i type="logical" name="LUSEW"> F  </i>
   <i name="ENCUTGW">     -2.00000000</i>
   <i name="ENCUTGWSOFT">     -2.00000000</i>
   <i name="ENCUTLF">     -1.00000000</i>
   <i type="int" name="LMAXMP2">    -1</i>
   <i name="SCISSOR">      0.00000000</i>
   <i type="int" name="NOMEGA">     0</i>
   <i type="int" name="NOMEGAR">     0</i>
   <i type="int" name="NBANDSGW">    -1</i>
   <i type="int" name="NBANDSO">    -1</i>
   <i type="int" name="NBANDSV">    -1</i>
   <i type="int" name="NELM">   200</i>
   <i type="int" name="NELMHF">     1</i>
   <i type="int" name="DIM">     3</i>
   <i type="int" name="ANTIRES">     0</i>
   <i name="OMEGAMAX">    -30.00000000</i>
   <i name="OMEGAMIN">    -30.00000000</i>
   <i name="OMEGATL">   -200.00000000</i>
   <i type="int" name="OMEGAGRID">   140</i>
   <i name="CSHIFT">     -0.10000000</i>
   <i type="logical" name="SELFENERGY"> F  </i>
   <i type="logical" name="LSPECTRAL"> F  </i>
   <i type="logical" name="LSPECTRALGW"> F  </i>
   <i type="logical" name="LSINGLES"> F  </i>
   <i type="logical" name="LFERMIGW"> F  </i>
   <i type="logical" name="ODDONLYGW"> F  </i>
   <i type="logical" name="EVENONLYGW"> F  </i>
   <i type="int" name="NKREDLFX">     1</i>
   <i type="int" name="NKREDLFY">     1</i>
   <i type="int" name="NKREDLFZ">     1</i>
   <i type="int" name="MAXMEM">  2800</i>
   <i type="int" name="TELESCOPE">     0</i>
   <i type="int" name="TAUPAR">     1</i>
   <i type="int" name="OMEGAPAR">    -1</i>
   <i name="LAMBDA">      1.00000000</i>
  </separator>
  <separator name="External order field" >
   <i name="OFIELD_KAPPA">      0.00000000</i>
   <v name="OFIELD_K">      0.00000000      0.00000000      0.00000000</v>
   <i name="OFIELD_Q6_NEAR">      0.00000000</i>
   <i name="OFIELD_Q6_FAR">      0.00000000</i>
   <i name="OFIELD_A">      0.00000000</i>
  </separator>
 </parameters>
 <atominfo>
  <atoms>       5 </atoms>
  <types>       3 </types>
  <array name="atoms" >
   <dimension dim="1">ion</dimension>
   <field type="string">element</field>
   <field type="int">atomtype</field>
   <set>
    <rc><c>Y </c><c>   1</c></rc>
    <rc><c>Y </c><c>   1</c></rc>
    <rc><c>C </c><c>   2</c></rc>
    <rc><c>I </c><c>   3</c></rc>
    <rc><c>I </c><c>   3</c></rc>
   </set>
  </array>
  <array name="atomtypes" >
   <dimension dim="1">type</dimension>
   <field type="int">atomspertype</field>
   <field type="string">element</field>
   <field>mass</field>
   <field>valence</field>
   <field type="string">pseudopotential</field>
   <set>
    <rc><c>   2</c><c>Y </c><c>     88.90600000</c><c>     11.00000000</c><c>  PAW_PBE Y_sv 25May2007                </c></rc>
    <rc><c>   1</c><c>C </c><c>     12.01100000</c><c>      4.00000000</c><c>  PAW_PBE C 08Apr2002                   </c></rc>
    <rc><c>   2</c><c>I </c><c>    126.90400000</c><c>      7.00000000</c><c>  PAW_PBE I 08Apr2002                   </c></rc>
   </set>
  </array>
 </atominfo>
 <structure name="initialpos" >
  <crystal>
   <varray name="basis" >
    <v>       3.88532200       0.00000200      -0.00000000 </v>
    <v>      -1.94266000       3.36478700      -0.00000000 </v>
    <v>      -0.00000100      -0.00000100      11.09957700 </v>
   </varray>
   <i name="volume">    145.10793174 </i>
   <varray name="rec_basis" >
    <v>       0.25737885       0.14859770       0.00000004 </v>
    <v>      -0.00000015       0.29719554       0.00000003 </v>
    <v>       0.00000000       0.00000000       0.09009352 </v>
   </varray>
  </crystal>
  <varray name="positions" >
   <v>       0.33333300       0.66666700       0.11777000 </v>
   <v>       0.66666700       0.33333300       0.88223000 </v>
   <v>       0.00000000       0.00000000       0.00000000 </v>
   <v>       0.33333300       0.66666700       0.68720500 </v>
   <v>       0.66666800       0.33333400       0.31279500 </v>
  </varray>
 </structure>
 <calculation>
  <scstep>
   <time name="dav">    2.09    2.09</time>
   <time name="total">    2.22    2.23</time>
   <energy>
    <i name="alphaZ">    129.45346966 </i>
    <i name="ewald">  -1589.53699173 </i>
    <i name="hartreedc">  -1192.43888796 </i>
    <i name="XCdc">     70.85047069 </i>
    <i name="pawpsdc">   2256.75144894 </i>
    <i name="pawaedc">  -2177.84970691 </i>
    <i name="eentropy">      0.00000000 </i>
    <i name="bandstr">   -142.97878953 </i>
    <i name="atom">   2872.70909303 </i>
    <i name="e_fr_energy">    226.96010619 </i>
    <i name="e_wo_entrp">    226.96010619 </i>
    <i name="e_0_energy">    226.96010619 </i>
   </energy>
  </scstep>
  <scstep>
   <time name="dav">    2.47    2.48</time>
   <time name="total">    2.48    2.49</time>
   <energy>
    <i name="e_fr_energy">    -12.37008253 </i>
    <i name="e_wo_entrp">    -12.37008253 </i>
    <i name="e_0_energy">    -12.37008253 </i>
   </energy>
  </scstep>
  <scstep>
   <time name="dav">    3.29    3.31</time>
   <time name="total">    3.29    3.31</time>
   <energy>
    <i name="e_fr_energy">    -33.94779549 </i>
    <i name="e_wo_entrp">    -33.94779549 </i>
    <i name="e_0_energy">    -33.94779549 </i>
   </energy>
  </scstep>
  <scstep>
   <time name="dav">    3.26    3.28</time>
   <time name="total">    3.26    3.28</time>
   <energy>
    <i name="e_fr_energy">    -35.32002473 </i>
    <i name="e_wo_entrp">    -35.32002473 </i>
    <i name="e_0_energy">    -35.32002473 </i>
   </energy>
  </scstep>
  <scstep>
   <time name="dav">    3.04    3.05</time>
   <time name="total">    3.20    3.21</time>
   <energy>
    <i name="e_fr_energy">    -35.36186772 </i>
    <i name="e_wo_entrp">    -35.36186772 </i>
    <i name="e_0_energy">    -35.36186772 </i>
   </energy>
  </scstep>
  <scstep>
   <time name="dav">    2.48    2.49</time>
   <time name="total">    2.77    2.78</time>
   <energy>
    <i name="e_fr_energy">    -29.95508673 </i>
    <i name="e_wo_entrp">    -29.95508673 </i>
    <i name="e_0_energy">    -29.95508673 </i>
   </energy>
  </scstep>
  <scstep>
   <time name="dav">    2.68    2.69</time>
   <time name="total">    2.96    2.97</time>
   <energy>
    <i name="e_fr_energy">    -30.06700783 </i>
    <i name="e_wo_entrp">    -30.06700783 </i>
    <i name="e_0_energy">    -30.06700783 </i>
   </energy>
  </scstep>
  <scstep>
   <time name="dav">    2.78    2.79</time>
   <time name="total">    3.05    3.07</time>
   <energy>
    <i name="e_fr_energy">    -30.14240676 </i>
    <i name="e_wo_entrp">    -30.14240676 </i>
    <i name="e_0_energy">    -30.14240676 </i>
   </energy>
  </scstep>
  <scstep>
   <time name="dav">    2.70    2.72</time>
   <time name="total">    2.98    2.99</time>
   <energy>
    <i name="e_fr_energy">    -30.10911293 </i>
    <i name="e_wo_entrp">    -30.10911293 </i>
    <i name="e_0_energy">    -30.10911293 </i>
   </energy>
  </scstep>
  <scstep>
   <time name="dav">    2.75    2.76</time>
   <time name="total">    3.02    3.03</time>
   <energy>
    <i name="e_fr_energy">    -30.10989521 </i>
    <i name="e_wo_entrp">    -30.10989521 </i>
    <i name="e_0_energy">    -30.10989521 </i>
   </energy>
  </scstep>
  <scstep>
   <time name="dav">    2.61    2.62</time>
   <time name="total">    2.88    2.90</time>
   <energy>
    <i name="e_fr_energy">    -30.11027015 </i>
    <i name="e_wo_entrp">    -30.11027015 </i>
    <i name="e_0_energy">    -30.11027015 </i>
   </energy>
  </scstep>
  <scstep>
   <time name="dav">    2.96    2.97</time>
   <time name="total">    3.23    3.24</time>
   <energy>
    <i name="e_fr_energy">    -30.11057825 </i>
    <i name="e_wo_entrp">    -30.11057825 </i>
    <i name="e_0_energy">    -30.11057825 </i>
   </energy>
  </scstep>
  <scstep>
   <time name="dav">    2.54    2.55</time>
   <time name="total">    2.80    2.82</time>
   <energy>
    <i name="e_fr_energy">    -30.11056884 </i>
    <i name="e_wo_entrp">    -30.11056884 </i>
    <i name="e_0_energy">    -30.11056884 </i>
   </energy>
  </scstep>
  <scstep>
   <time name="dav">    2.21    2.22</time>
   <time name="total">    2.47    2.49</time>
   <energy>
    <i name="e_fr_energy">    -30.11063433 </i>
    <i name="e_wo_entrp">    -30.11063433 </i>
    <i name="e_0_energy">    -30.11063433 </i>
   </energy>
  </scstep>
  <scstep>
   <time name="dav">    2.12    2.13</time>
   <time name="total">    2.38    2.39</time>
   <energy>
    <i name="e_fr_energy">    -30.11066302 </i>
    <i name="e_wo_entrp">    -30.11066302 </i>
    <i name="e_0_energy">    -30.11066302 </i>
   </energy>
  </scstep>
  <scstep>
   <time name="dav">    1.88    1.89</time>
   <time name="total">    1.99    2.00</time>
   <energy>
    <i name="alphaZ">    129.45346966 </i>
    <i name="ewald">  -1589.53699173 </i>
    <i name="hartreedc">  -1194.29166109 </i>
    <i name="XCdc">     70.70505030 </i>
    <i name="pawpsdc">   3880.55999579 </i>
    <i name="pawaedc">  -3803.76334049 </i>
    <i name="eentropy">      0.00000000 </i>
    <i name="bandstr">   -395.94628302 </i>
    <i name="atom">   2872.70909303 </i>
    <i name="e_fr_energy">    -30.11066755 </i>
    <i name="e_wo_entrp">    -30.11066755 </i>
    <i name="e_0_energy">    -30.11066755 </i>
   </energy>
  </scstep>
  <structure>
   <crystal>
    <varray name="basis" >
     <v>       3.88532200       0.00000200      -0.00000000 </v>
     <v>      -1.94266000       3.36478700      -0.00000000 </v>
     <v>      -0.00000100      -0.00000100      11.09957700 </v>
    </varray>
    <i name="volume">    145.10793174 </i>
    <varray name="rec_basis" >
     <v>       0.25737885       0.14859770       0.00000004 </v>
     <v>      -0.00000015       0.29719554       0.00000003 </v>
     <v>       0.00000000       0.00000000       0.09009352 </v>
    </varray>
   </crystal>
   <varray name="positions" >
    <v>       0.33333300       0.66666700       0.11777000 </v>
    <v>       0.66666700       0.33333300       0.88223000 </v>
    <v>       0.00000000       0.00000000       0.00000000 </v>
    <v>       0.33333300       0.66666700       0.68720500 </v>
    <v>       0.66666800       0.33333400       0.31279500 </v>
   </varray>
  </structure>
  <varray name="forces" >
   <v>       0.00001336      -0.00000571       0.02423530 </v>
   <v>      -0.00001185       0.00000913      -0.02422918 </v>
   <v>       0.00000470       0.00000408      -0.00000485 </v>
   <v>       0.00000488       0.00000161       0.02323285 </v>
   <v>      -0.00001109      -0.00000911      -0.02323413 </v>
  </varray>
  <varray name="stress" >
   <v>      -3.36345307       0.00008122      -0.00018481 </v>
   <v>       0.00008084      -3.36333419      -0.00006059 </v>
   <v>      -0.00018454      -0.00005998       0.25701206 </v>
  </varray>
  <energy>
   <i name="e_fr_energy">    -30.11066755 </i>
   <i name="e_wo_entrp">    -30.11066755 </i>
   <i name="e_0_energy">      0.00000000 </i>
  </energy>
  <time name="totalsc">   49.35   49.69</time>
  <eigenvalues>
   <array>
    <dimension dim="1">band</dimension>
    <dimension dim="2">kpoint</dimension>
    <dimension dim="3">spin</dimension>
    <field>eigene</field>
    <field>occ</field>
    <set>
     <set comment="spin 1">
      <set comment="kpoint 1">
       <r>  -38.4575    1.0000 </r>
       <r>  -38.4042    1.0000 </r>
       <r>  -18.7005    1.0000 </r>
       <r>  -18.3584    1.0000 </r>
       <r>  -18.3584    1.0000 </r>
       <r>  -18.3365    1.0000 </r>
       <r>  -18.2861    1.0000 </r>
       <r>  -18.2861    1.0000 </r>
       <r>   -9.4921    1.0000 </r>
       <r>   -9.3927    1.0000 </r>
       <r>   -4.8984    1.0000 </r>
       <r>   -0.2292    1.0000 </r>
       <r>   -0.0281    1.0000 </r>
       <r>    2.0371    1.0000 </r>
       <r>    2.0371    1.0000 </r>
       <r>    2.5073    1.0000 </r>
       <r>    2.5708    1.0000 </r>
       <r>    2.5708    1.0000 </r>
       <r>    3.3654    1.0000 </r>
       <r>    3.3654    1.0000 </r>
       <r>    5.6924    0.0000 </r>
       <r>    5.6924    0.0000 </r>
       <r>    6.0298    0.0000 </r>
       <r>    6.9228    0.0000 </r>
       <r>    7.0216    0.0000 </r>
       <r>    7.5263    0.0000 </r>
      </set>
      <set comment="kpoint 2">
       <r>  -38.4472    1.0000 </r>
       <r>  -38.4029    1.0000 </r>
       <r>  -18.6704    1.0000 </r>
       <r>  -18.4850    1.0000 </r>
       <r>  -18.3906    1.0000 </r>
       <r>  -18.3562    1.0000 </r>
       <r>  -18.3024    1.0000 </r>
       <r>  -18.2913    1.0000 </r>
       <r>   -9.2673    1.0000 </r>
       <r>   -9.1936    1.0000 </r>
       <r>   -4.7222    1.0000 </r>
       <r>   -0.0647    1.0000 </r>
       <r>    0.1807    1.0000 </r>
       <r>    1.1221    1.0000 </r>
       <r>    1.2549    1.0000 </r>
       <r>    2.0482    1.0000 </r>
       <r>    2.2455    1.0000 </r>
       <r>    2.3999    1.0000 </r>
       <r>    2.5777    1.0000 </r>
       <r>    3.0254    1.0000 </r>
       <r>    4.8976    0.0000 </r>
       <r>    6.2660    0.0000 </r>
       <r>    6.3121    0.0000 </r>
       <r>    6.9568    0.0000 </r>
       <r>    7.3592    0.0000 </r>
       <r>    7.6422    0.0000 </r>
      </set>
      <set comment="kpoint 3">
       <r>  -38.4274    1.0000 </r>
       <r>  -38.4039    1.0000 </r>
       <r>  -18.6641    1.0000 </r>
       <r>  -18.6194    1.0000 </r>
       <r>  -18.4366    1.0000 </r>
       <r>  -18.4084    1.0000 </r>
       <r>  -18.3278    1.0000 </r>
       <r>  -18.3051    1.0000 </r>
       <r>   -8.8611    1.0000 </r>
       <r>   -8.8333    1.0000 </r>
       <r>   -4.4543    1.0000 </r>
       <r>   -0.5806    1.0000 </r>
       <r>   -0.4743    1.0000 </r>
       <r>    0.3058    1.0000 </r>
       <r>    0.7945    1.0000 </r>
       <r>    1.6946    1.0000 </r>
       <r>    1.8750    1.0000 </r>
       <r>    2.0172    1.0000 </r>
       <r>    2.7668    1.0000 </r>
       <r>    2.9831    1.0000 </r>
       <r>    4.0241    0.0000 </r>
       <r>    7.0796    0.0000 </r>
       <r>    7.1419    0.0000 </r>
       <r>    7.3569    0.0000 </r>
       <r>    7.4866    0.0000 </r>
       <r>    8.3096    0.0000 </r>
      </set>
      <set comment="kpoint 4">
       <r>  -38.4472    1.0000 </r>
       <r>  -38.4029    1.0000 </r>
       <r>  -18.6704    1.0000 </r>
       <r>  -18.4850    1.0000 </r>
       <r>  -18.3906    1.0000 </r>
       <r>  -18.3562    1.0000 </r>
       <r>  -18.3024    1.0000 </r>
       <r>  -18.2913    1.0000 </r>
       <r>   -9.2673    1.0000 </r>
       <r>   -9.1936    1.0000 </r>
       <r>   -4.7222    1.0000 </r>
       <r>   -0.0647    1.0000 </r>
       <r>    0.1807    1.0000 </r>
       <r>    1.1221    1.0000 </r>
       <r>    1.2549    1.0000 </r>
       <r>    2.0482    1.0000 </r>
       <r>    2.2455    1.0000 </r>
       <r>    2.3999    1.0000 </r>
       <r>    2.5777    1.0000 </r>
       <r>    3.0254    1.0000 </r>
       <r>    4.8976    0.0000 </r>
       <r>    6.2660    0.0000 </r>
       <r>    6.3121    0.0000 </r>
       <r>    6.9568    0.0000 </r>
       <r>    7.3592    0.0000 </r>
       <r>    7.6422    0.0000 </r>
      </set>
      <set comment="kpoint 5">
       <r>  -38.4318    1.0000 </r>
       <r>  -38.4031    1.0000 </r>
       <r>  -18.6465    1.0000 </r>
       <r>  -18.5682    1.0000 </r>
       <r>  -18.4890    1.0000 </r>
       <r>  -18.3663    1.0000 </r>
       <r>  -18.3379    1.0000 </r>
       <r>  -18.3054    1.0000 </r>
       <r>   -8.9463    1.0000 </r>
       <r>   -8.9056    1.0000 </r>
       <r>   -4.5049    1.0000 </r>
       <r>    0.0381    1.0000 </r>
       <r>    0.0539    1.0000 </r>
       <r>    0.2284    1.0000 </r>
       <r>    0.6482    1.0000 </r>
       <r>    1.3599    1.0000 </r>
       <r>    1.4283    1.0000 </r>
       <r>    2.1921    1.0000 </r>
       <r>    2.6328    1.0000 </r>
       <r>    2.7142    1.0000 </r>
       <r>    5.0501    0.0000 </r>
       <r>    5.6623    0.0000 </r>
       <r>    6.9329    0.0000 </r>
       <r>    7.7750    0.0000 </r>
       <r>    7.8017    0.0000 </r>
       <r>    8.3125    0.0000 </r>
      </set>
      <set comment="kpoint 6">
       <r>  -38.4182    1.0000 </r>
       <r>  -38.4073    1.0000 </r>
       <r>  -18.6448    1.0000 </r>
       <r>  -18.6140    1.0000 </r>
       <r>  -18.5212    1.0000 </r>
       <r>  -18.3924    1.0000 </r>
       <r>  -18.3426    1.0000 </r>
       <r>  -18.3306    1.0000 </r>
       <r>   -8.7236    1.0000 </r>
       <r>   -8.7130    1.0000 </r>
       <r>   -4.3706    1.0000 </r>
       <r>   -0.5171    1.0000 </r>
       <r>   -0.4793    1.0000 </r>
       <r>    0.6644    1.0000 </r>
       <r>    0.7678    1.0000 </r>
       <r>    0.7967    1.0000 </r>
       <r>    0.8434    1.0000 </r>
       <r>    1.9852    1.0000 </r>
       <r>    2.4312    1.0000 </r>
       <r>    2.9480    1.0000 </r>
       <r>    4.9418    0.0000 </r>
       <r>    6.5831    0.0000 </r>
       <r>    6.9988    0.0000 </r>
       <r>    7.6499    0.0000 </r>
       <r>    7.8418    0.0000 </r>
       <r>    8.3251    0.0000 </r>
      </set>
      <set comment="kpoint 7">
       <r>  -38.4318    1.0000 </r>
       <r>  -38.4031    1.0000 </r>
       <r>  -18.6465    1.0000 </r>
       <r>  -18.5682    1.0000 </r>
       <r>  -18.4890    1.0000 </r>
       <r>  -18.3663    1.0000 </r>
       <r>  -18.3379    1.0000 </r>
       <r>  -18.3054    1.0000 </r>
       <r>   -8.9463    1.0000 </r>
       <r>   -8.9056    1.0000 </r>
       <r>   -4.5049    1.0000 </r>
       <r>    0.0381    1.0000 </r>
       <r>    0.0539    1.0000 </r>
       <r>    0.2284    1.0000 </r>
       <r>    0.6482    1.0000 </r>
       <r>    1.3599    1.0000 </r>
       <r>    1.4283    1.0000 </r>
       <r>    2.1921    1.0000 </r>
       <r>    2.6328    1.0000 </r>
       <r>    2.7142    1.0000 </r>
       <r>    5.0501    0.0000 </r>
       <r>    5.6623    0.0000 </r>
       <r>    6.9329    0.0000 </r>
       <r>    7.7750    0.0000 </r>
       <r>    7.8017    0.0000 </r>
       <r>    8.3140    0.0000 </r>
      </set>
      <set comment="kpoint 8">
       <r>  -38.4472    1.0000 </r>
       <r>  -38.4029    1.0000 </r>
       <r>  -18.6704    1.0000 </r>
       <r>  -18.4850    1.0000 </r>
       <r>  -18.3906    1.0000 </r>
       <r>  -18.3562    1.0000 </r>
       <r>  -18.3024    1.0000 </r>
       <r>  -18.2913    1.0000 </r>
       <r>   -9.2673    1.0000 </r>
       <r>   -9.1936    1.0000 </r>
       <r>   -4.7222    1.0000 </r>
       <r>   -0.0647    1.0000 </r>
       <r>    0.1807    1.0000 </r>
       <r>    1.1221    1.0000 </r>
       <r>    1.2550    1.0000 </r>
       <r>    2.0482    1.0000 </r>
       <r>    2.2455    1.0000 </r>
       <r>    2.3999    1.0000 </r>
       <r>    2.5777    1.0000 </r>
       <r>    3.0254    1.0000 </r>
       <r>    4.8976    0.0000 </r>
       <r>    6.2660    0.0000 </r>
       <r>    6.3121    0.0000 </r>
       <r>    6.9568    0.0000 </r>
       <r>    7.3592    0.0000 </r>
       <r>    7.6423    0.0000 </r>
      </set>
      <set comment="kpoint 9">
       <r>  -38.4274    1.0000 </r>
       <r>  -38.4039    1.0000 </r>
       <r>  -18.6641    1.0000 </r>
       <r>  -18.6194    1.0000 </r>
       <r>  -18.4366    1.0000 </r>
       <r>  -18.4084    1.0000 </r>
       <r>  -18.3278    1.0000 </r>
       <r>  -18.3051    1.0000 </r>
       <r>   -8.8611    1.0000 </r>
       <r>   -8.8333    1.0000 </r>
       <r>   -4.4543    1.0000 </r>
       <r>   -0.5806    1.0000 </r>
       <r>   -0.4743    1.0000 </r>
       <r>    0.3058    1.0000 </r>
       <r>    0.7945    1.0000 </r>
       <r>    1.6946    1.0000 </r>
       <r>    1.8750    1.0000 </r>
       <r>    2.0173    1.0000 </r>
       <r>    2.7668    1.0000 </r>
       <r>    2.9831    1.0000 </r>
       <r>    4.0241    0.0000 </r>
       <r>    7.0796    0.0000 </r>
       <r>    7.1418    0.0000 </r>
       <r>    7.3569    0.0000 </r>
       <r>    7.4866    0.0000 </r>
       <r>    8.2979    0.0000 </r>
      </set>
      <set comment="kpoint 10">
       <r>  -38.4182    1.0000 </r>
       <r>  -38.4073    1.0000 </r>
       <r>  -18.6448    1.0000 </r>
       <r>  -18.6140    1.0000 </r>
       <r>  -18.5212    1.0000 </r>
       <r>  -18.3924    1.0000 </r>
       <r>  -18.3426    1.0000 </r>
       <r>  -18.3306    1.0000 </r>
       <r>   -8.7236    1.0000 </r>
       <r>   -8.7130    1.0000 </r>
       <r>   -4.3706    1.0000 </r>
       <r>   -0.5171    1.0000 </r>
       <r>   -0.4793    1.0000 </r>
       <r>    0.6644    1.0000 </r>
       <r>    0.7678    1.0000 </r>
       <r>    0.7967    1.0000 </r>
       <r>    0.8434    1.0000 </r>
       <r>    1.9852    1.0000 </r>
       <r>    2.4312    1.0000 </r>
       <r>    2.9480    1.0000 </r>
       <r>    4.9418    0.0000 </r>
       <r>    6.5831    0.0000 </r>
       <r>    6.9988    0.0000 </r>
       <r>    7.6499    0.0000 </r>
       <r>    7.8418    0.0000 </r>
       <r>    8.3251    0.0000 </r>
      </set>
      <set comment="kpoint 11">
       <r>  -38.4182    1.0000 </r>
       <r>  -38.4073    1.0000 </r>
       <r>  -18.6448    1.0000 </r>
       <r>  -18.6140    1.0000 </r>
       <r>  -18.5212    1.0000 </r>
       <r>  -18.3924    1.0000 </r>
       <r>  -18.3426    1.0000 </r>
       <r>  -18.3306    1.0000 </r>
       <r>   -8.7236    1.0000 </r>
       <r>   -8.7130    1.0000 </r>
       <r>   -4.3706    1.0000 </r>
       <r>   -0.5171    1.0000 </r>
       <r>   -0.4793    1.0000 </r>
       <r>    0.6644    1.0000 </r>
       <r>    0.7678    1.0000 </r>
       <r>    0.7967    1.0000 </r>
       <r>    0.8434    1.0000 </r>
       <r>    1.9852    1.0000 </r>
       <r>    2.4312    1.0000 </r>
       <r>    2.9480    1.0000 </r>
       <r>    4.9418    0.0000 </r>
       <r>    6.5831    0.0000 </r>
       <r>    6.9988    0.0000 </r>
       <r>    7.6499    0.0000 </r>
       <r>    7.8418    0.0000 </r>
       <r>    8.3251    0.0000 </r>
      </set>
      <set comment="kpoint 12">
       <r>  -38.4274    1.0000 </r>
       <r>  -38.4039    1.0000 </r>
       <r>  -18.6641    1.0000 </r>
       <r>  -18.6194    1.0000 </r>
       <r>  -18.4366    1.0000 </r>
       <r>  -18.4084    1.0000 </r>
       <r>  -18.3278    1.0000 </r>
       <r>  -18.3051    1.0000 </r>
       <r>   -8.8611    1.0000 </r>
       <r>   -8.8333    1.0000 </r>
       <r>   -4.4543    1.0000 </r>
       <r>   -0.5806    1.0000 </r>
       <r>   -0.4743    1.0000 </r>
       <r>    0.3058    1.0000 </r>
       <r>    0.7945    1.0000 </r>
       <r>    1.6946    1.0000 </r>
       <r>    1.8750    1.0000 </r>
       <r>    2.0173    1.0000 </r>
       <r>    2.7668    1.0000 </r>
       <r>    2.9831    1.0000 </r>
       <r>    4.0241    0.0000 </r>
       <r>    7.0796    0.0000 </r>
       <r>    7.1418    0.0000 </r>
       <r>    7.3569    0.0000 </r>
       <r>    7.4866    0.0000 </r>
       <r>    8.2983    0.0000 </r>
      </set>
      <set comment="kpoint 13">
       <r>  -38.4318    1.0000 </r>
       <r>  -38.4031    1.0000 </r>
       <r>  -18.6465    1.0000 </r>
       <r>  -18.5682    1.0000 </r>
       <r>  -18.4890    1.0000 </r>
       <r>  -18.3663    1.0000 </r>
       <r>  -18.3379    1.0000 </r>
       <r>  -18.3054    1.0000 </r>
       <r>   -8.9463    1.0000 </r>
       <r>   -8.9056    1.0000 </r>
       <r>   -4.5049    1.0000 </r>
       <r>    0.0381    1.0000 </r>
       <r>    0.0539    1.0000 </r>
       <r>    0.2284    1.0000 </r>
       <r>    0.6482    1.0000 </r>
       <r>    1.3599    1.0000 </r>
       <r>    1.4283    1.0000 </r>
       <r>    2.1921    1.0000 </r>
       <r>    2.6328    1.0000 </r>
       <r>    2.7142    1.0000 </r>
       <r>    5.0501    0.0000 </r>
       <r>    5.6623    0.0000 </r>
       <r>    6.9329    0.0000 </r>
       <r>    7.7750    0.0000 </r>
       <r>    7.8017    0.0000 </r>
       <r>    8.3134    0.0000 </r>
      </set>
      <set comment="kpoint 14">
       <r>  -38.4575    1.0000 </r>
       <r>  -38.4042    1.0000 </r>
       <r>  -18.7005    1.0000 </r>
       <r>  -18.3584    1.0000 </r>
       <r>  -18.3584    1.0000 </r>
       <r>  -18.3365    1.0000 </r>
       <r>  -18.2861    1.0000 </r>
       <r>  -18.2861    1.0000 </r>
       <r>   -9.4584    1.0000 </r>
       <r>   -9.4279    1.0000 </r>
       <r>   -4.8898    1.0000 </r>
       <r>   -0.6080    1.0000 </r>
       <r>    0.5794    1.0000 </r>
       <r>    2.0269    1.0000 </r>
       <r>    2.0269    1.0000 </r>
       <r>    2.1217    1.0000 </r>
       <r>    2.5982    1.0000 </r>
       <r>    2.5982    1.0000 </r>
       <r>    3.3433    1.0000 </r>
       <r>    3.3433    1.0000 </r>
       <r>    5.6943    0.0000 </r>
       <r>    5.6943    0.0000 </r>
       <r>    6.1725    0.0000 </r>
       <r>    6.9410    0.0000 </r>
       <r>    7.5461    0.0000 </r>
       <r>    7.6626    0.0000 </r>
      </set>
      <set comment="kpoint 15">
       <r>  -38.4472    1.0000 </r>
       <r>  -38.4029    1.0000 </r>
       <r>  -18.6704    1.0000 </r>
       <r>  -18.4850    1.0000 </r>
       <r>  -18.3906    1.0000 </r>
       <r>  -18.3562    1.0000 </r>
       <r>  -18.3024    1.0000 </r>
       <r>  -18.2913    1.0000 </r>
       <r>   -9.2510    1.0000 </r>
       <r>   -9.2105    1.0000 </r>
       <r>   -4.7194    1.0000 </r>
       <r>   -0.2148    1.0000 </r>
       <r>    0.4059    1.0000 </r>
       <r>    1.0917    1.0000 </r>
       <r>    1.2089    1.0000 </r>
       <r>    2.0207    1.0000 </r>
       <r>    2.2891    1.0000 </r>
       <r>    2.4314    1.0000 </r>
       <r>    2.5416    1.0000 </r>
       <r>    3.0061    1.0000 </r>
       <r>    4.8600    0.0000 </r>
       <r>    6.2831    0.0000 </r>
       <r>    6.3035    0.0000 </r>
       <r>    6.9896    0.0000 </r>
       <r>    7.3727    0.0000 </r>
       <r>    7.6850    0.0000 </r>
      </set>
      <set comment="kpoint 16">
       <r>  -38.4274    1.0000 </r>
       <r>  -38.4039    1.0000 </r>
       <r>  -18.6641    1.0000 </r>
       <r>  -18.6194    1.0000 </r>
       <r>  -18.4366    1.0000 </r>
       <r>  -18.4084    1.0000 </r>
       <r>  -18.3278    1.0000 </r>
       <r>  -18.3051    1.0000 </r>
       <r>   -8.8645    1.0000 </r>
       <r>   -8.8298    1.0000 </r>
       <r>   -4.4547    1.0000 </r>
       <r>   -0.6318    1.0000 </r>
       <r>   -0.4469    1.0000 </r>
       <r>    0.4825    1.0000 </r>
       <r>    0.6400    1.0000 </r>
       <r>    1.7361    1.0000 </r>
       <r>    1.8243    1.0000 </r>
       <r>    2.0123    1.0000 </r>
       <r>    2.7723    1.0000 </r>
       <r>    2.9950    1.0000 </r>
       <r>    4.0207    0.0000 </r>
       <r>    6.7176    0.0000 </r>
       <r>    7.1167    0.0000 </r>
       <r>    7.4837    0.0000 </r>
       <r>    7.8693    0.0000 </r>
       <r>    8.2938    0.0000 </r>
      </set>
      <set comment="kpoint 17">
       <r>  -38.4472    1.0000 </r>
       <r>  -38.4029    1.0000 </r>
       <r>  -18.6704    1.0000 </r>
       <r>  -18.4850    1.0000 </r>
       <r>  -18.3906    1.0000 </r>
       <r>  -18.3562    1.0000 </r>
       <r>  -18.3024    1.0000 </r>
       <r>  -18.2913    1.0000 </r>
       <r>   -9.2510    1.0000 </r>
       <r>   -9.2105    1.0000 </r>
       <r>   -4.7194    1.0000 </r>
       <r>   -0.2148    1.0000 </r>
       <r>    0.4059    1.0000 </r>
       <r>    1.0917    1.0000 </r>
       <r>    1.2089    1.0000 </r>
       <r>    2.0207    1.0000 </r>
       <r>    2.2891    1.0000 </r>
       <r>    2.4314    1.0000 </r>
       <r>    2.5416    1.0000 </r>
       <r>    3.0061    1.0000 </r>
       <r>    4.8600    0.0000 </r>
       <r>    6.2831    0.0000 </r>
       <r>    6.3035    0.0000 </r>
       <r>    6.9896    0.0000 </r>
       <r>    7.3727    0.0000 </r>
       <r>    7.6850    0.0000 </r>
      </set>
      <set comment="kpoint 18">
       <r>  -38.4318    1.0000 </r>
       <r>  -38.4031    1.0000 </r>
       <r>  -18.6464    1.0000 </r>
       <r>  -18.5682    1.0000 </r>
       <r>  -18.4890    1.0000 </r>
       <r>  -18.3663    1.0000 </r>
       <r>  -18.3379    1.0000 </r>
       <r>  -18.3054    1.0000 </r>
       <r>   -8.9452    1.0000 </r>
       <r>   -8.9068    1.0000 </r>
       <r>   -4.5050    1.0000 </r>
       <r>    0.0088    1.0000 </r>
       <r>    0.0502    1.0000 </r>
       <r>    0.3363    1.0000 </r>
       <r>    0.5460    1.0000 </r>
       <r>    1.4030    1.0000 </r>
       <r>    1.4036    1.0000 </r>
       <r>    2.2288    1.0000 </r>
       <r>    2.6341    1.0000 </r>
       <r>    2.7122    1.0000 </r>
       <r>    4.8920    0.0000 </r>
       <r>    5.7073    0.0000 </r>
       <r>    7.3351    0.0000 </r>
       <r>    7.6603    0.0000 </r>
       <r>    7.8440    0.0000 </r>
       <r>    7.9289    0.0000 </r>
      </set>
      <set comment="kpoint 19">
       <r>  -38.4182    1.0000 </r>
       <r>  -38.4073    1.0000 </r>
       <r>  -18.6448    1.0000 </r>
       <r>  -18.6140    1.0000 </r>
       <r>  -18.5212    1.0000 </r>
       <r>  -18.3924    1.0000 </r>
       <r>  -18.3426    1.0000 </r>
       <r>  -18.3306    1.0000 </r>
       <r>   -8.7269    1.0000 </r>
       <r>   -8.7097    1.0000 </r>
       <r>   -4.3706    1.0000 </r>
       <r>   -0.5699    1.0000 </r>
       <r>   -0.4335    1.0000 </r>
       <r>    0.6713    1.0000 </r>
       <r>    0.6832    1.0000 </r>
       <r>    0.8806    1.0000 </r>
       <r>    0.8932    1.0000 </r>
       <r>    1.9213    1.0000 </r>
       <r>    2.4367    1.0000 </r>
       <r>    2.9377    1.0000 </r>
       <r>    4.9875    0.0000 </r>
       <r>    6.5845    0.0000 </r>
       <r>    6.8988    0.0000 </r>
       <r>    7.4790    0.0000 </r>
       <r>    7.9752    0.0000 </r>
       <r>    8.4237    0.0000 </r>
      </set>
      <set comment="kpoint 20">
       <r>  -38.4318    1.0000 </r>
       <r>  -38.4031    1.0000 </r>
       <r>  -18.6464    1.0000 </r>
       <r>  -18.5682    1.0000 </r>
       <r>  -18.4890    1.0000 </r>
       <r>  -18.3663    1.0000 </r>
       <r>  -18.3379    1.0000 </r>
       <r>  -18.3054    1.0000 </r>
       <r>   -8.9452    1.0000 </r>
       <r>   -8.9068    1.0000 </r>
       <r>   -4.5050    1.0000 </r>
       <r>    0.0088    1.0000 </r>
       <r>    0.0502    1.0000 </r>
       <r>    0.3363    1.0000 </r>
       <r>    0.5460    1.0000 </r>
       <r>    1.4030    1.0000 </r>
       <r>    1.4036    1.0000 </r>
       <r>    2.2288    1.0000 </r>
       <r>    2.6341    1.0000 </r>
       <r>    2.7122    1.0000 </r>
       <r>    4.8920    0.0000 </r>
       <r>    5.7073    0.0000 </r>
       <r>    7.3351    0.0000 </r>
       <r>    7.6603    0.0000 </r>
       <r>    7.8440    0.0000 </r>
       <r>    7.9289    0.0000 </r>
      </set>
      <set comment="kpoint 21">
       <r>  -38.4472    1.0000 </r>
       <r>  -38.4029    1.0000 </r>
       <r>  -18.6704    1.0000 </r>
       <r>  -18.4850    1.0000 </r>
       <r>  -18.3906    1.0000 </r>
       <r>  -18.3562    1.0000 </r>
       <r>  -18.3024    1.0000 </r>
       <r>  -18.2913    1.0000 </r>
       <r>   -9.2510    1.0000 </r>
       <r>   -9.2105    1.0000 </r>
       <r>   -4.7194    1.0000 </r>
       <r>   -0.2148    1.0000 </r>
       <r>    0.4059    1.0000 </r>
       <r>    1.0917    1.0000 </r>
       <r>    1.2089    1.0000 </r>
       <r>    2.0207    1.0000 </r>
       <r>    2.2891    1.0000 </r>
       <r>    2.4314    1.0000 </r>
       <r>    2.5416    1.0000 </r>
       <r>    3.0061    1.0000 </r>
       <r>    4.8600    0.0000 </r>
       <r>    6.2831    0.0000 </r>
       <r>    6.3035    0.0000 </r>
       <r>    6.9896    0.0000 </r>
       <r>    7.3726    0.0000 </r>
       <r>    7.6850    0.0000 </r>
      </set>
      <set comment="kpoint 22">
       <r>  -38.4274    1.0000 </r>
       <r>  -38.4039    1.0000 </r>
       <r>  -18.6641    1.0000 </r>
       <r>  -18.6194    1.0000 </r>
       <r>  -18.4366    1.0000 </r>
       <r>  -18.4084    1.0000 </r>
       <r>  -18.3278    1.0000 </r>
       <r>  -18.3051    1.0000 </r>
       <r>   -8.8645    1.0000 </r>
       <r>   -8.8298    1.0000 </r>
       <r>   -4.4547    1.0000 </r>
       <r>   -0.6318    1.0000 </r>
       <r>   -0.4469    1.0000 </r>
       <r>    0.4825    1.0000 </r>
       <r>    0.6400    1.0000 </r>
       <r>    1.7361    1.0000 </r>
       <r>    1.8243    1.0000 </r>
       <r>    2.0123    1.0000 </r>
       <r>    2.7723    1.0000 </r>
       <r>    2.9950    1.0000 </r>
       <r>    4.0207    0.0000 </r>
       <r>    6.7176    0.0000 </r>
       <r>    7.1167    0.0000 </r>
       <r>    7.4837    0.0000 </r>
       <r>    7.8693    0.0000 </r>
       <r>    8.2952    0.0000 </r>
      </set>
      <set comment="kpoint 23">
       <r>  -38.4182    1.0000 </r>
       <r>  -38.4073    1.0000 </r>
       <r>  -18.6448    1.0000 </r>
       <r>  -18.6140    1.0000 </r>
       <r>  -18.5212    1.0000 </r>
       <r>  -18.3924    1.0000 </r>
       <r>  -18.3426    1.0000 </r>
       <r>  -18.3306    1.0000 </r>
       <r>   -8.7269    1.0000 </r>
       <r>   -8.7097    1.0000 </r>
       <r>   -4.3706    1.0000 </r>
       <r>   -0.5699    1.0000 </r>
       <r>   -0.4335    1.0000 </r>
       <r>    0.6713    1.0000 </r>
       <r>    0.6832    1.0000 </r>
       <r>    0.8806    1.0000 </r>
       <r>    0.8932    1.0000 </r>
       <r>    1.9213    1.0000 </r>
       <r>    2.4367    1.0000 </r>
       <r>    2.9377    1.0000 </r>
       <r>    4.9875    0.0000 </r>
       <r>    6.5845    0.0000 </r>
       <r>    6.8989    0.0000 </r>
       <r>    7.4790    0.0000 </r>
       <r>    7.9752    0.0000 </r>
       <r>    8.4233    0.0000 </r>
      </set>
      <set comment="kpoint 24">
       <r>  -38.4182    1.0000 </r>
       <r>  -38.4073    1.0000 </r>
       <r>  -18.6448    1.0000 </r>
       <r>  -18.6140    1.0000 </r>
       <r>  -18.5212    1.0000 </r>
       <r>  -18.3924    1.0000 </r>
       <r>  -18.3426    1.0000 </r>
       <r>  -18.3306    1.0000 </r>
       <r>   -8.7269    1.0000 </r>
       <r>   -8.7097    1.0000 </r>
       <r>   -4.3706    1.0000 </r>
       <r>   -0.5699    1.0000 </r>
       <r>   -0.4335    1.0000 </r>
       <r>    0.6713    1.0000 </r>
       <r>    0.6832    1.0000 </r>
       <r>    0.8806    1.0000 </r>
       <r>    0.8932    1.0000 </r>
       <r>    1.9213    1.0000 </r>
       <r>    2.4367    1.0000 </r>
       <r>    2.9377    1.0000 </r>
       <r>    4.9875    0.0000 </r>
       <r>    6.5845    0.0000 </r>
       <r>    6.8989    0.0000 </r>
       <r>    7.4790    0.0000 </r>
       <r>    7.9752    0.0000 </r>
       <r>    8.4239    0.0000 </r>
      </set>
      <set comment="kpoint 25">
       <r>  -38.4274    1.0000 </r>
       <r>  -38.4039    1.0000 </r>
       <r>  -18.6641    1.0000 </r>
       <r>  -18.6194    1.0000 </r>
       <r>  -18.4366    1.0000 </r>
       <r>  -18.4084    1.0000 </r>
       <r>  -18.3278    1.0000 </r>
       <r>  -18.3051    1.0000 </r>
       <r>   -8.8645    1.0000 </r>
       <r>   -8.8298    1.0000 </r>
       <r>   -4.4547    1.0000 </r>
       <r>   -0.6318    1.0000 </r>
       <r>   -0.4469    1.0000 </r>
       <r>    0.4825    1.0000 </r>
       <r>    0.6400    1.0000 </r>
       <r>    1.7361    1.0000 </r>
       <r>    1.8243    1.0000 </r>
       <r>    2.0123    1.0000 </r>
       <r>    2.7723    1.0000 </r>
       <r>    2.9950    1.0000 </r>
       <r>    4.0207    0.0000 </r>
       <r>    6.7175    0.0000 </r>
       <r>    7.1167    0.0000 </r>
       <r>    7.4837    0.0000 </r>
       <r>    7.8693    0.0000 </r>
       <r>    8.2933    0.0000 </r>
      </set>
      <set comment="kpoint 26">
       <r>  -38.4318    1.0000 </r>
       <r>  -38.4031    1.0000 </r>
       <r>  -18.6464    1.0000 </r>
       <r>  -18.5682    1.0000 </r>
       <r>  -18.4890    1.0000 </r>
       <r>  -18.3663    1.0000 </r>
       <r>  -18.3379    1.0000 </r>
       <r>  -18.3054    1.0000 </r>
       <r>   -8.9452    1.0000 </r>
       <r>   -8.9068    1.0000 </r>
       <r>   -4.5050    1.0000 </r>
       <r>    0.0088    1.0000 </r>
       <r>    0.0502    1.0000 </r>
       <r>    0.3363    1.0000 </r>
       <r>    0.5460    1.0000 </r>
       <r>    1.4030    1.0000 </r>
       <r>    1.4036    1.0000 </r>
       <r>    2.2288    1.0000 </r>
       <r>    2.6341    1.0000 </r>
       <r>    2.7122    1.0000 </r>
       <r>    4.8920    0.0000 </r>
       <r>    5.7073    0.0000 </r>
       <r>    7.3351    0.0000 </r>
       <r>    7.6603    0.0000 </r>
       <r>    7.8440    0.0000 </r>
       <r>    7.9289    0.0000 </r>
      </set>
     </set>
     <set comment="spin 2">
      <set comment="kpoint 1">
       <r>  -38.4575    1.0000 </r>
       <r>  -38.4042    1.0000 </r>
       <r>  -18.7005    1.0000 </r>
       <r>  -18.3584    1.0000 </r>
       <r>  -18.3584    1.0000 </r>
       <r>  -18.3365    1.0000 </r>
       <r>  -18.2861    1.0000 </r>
       <r>  -18.2861    1.0000 </r>
       <r>   -9.4922    1.0000 </r>
       <r>   -9.3927    1.0000 </r>
       <r>   -4.8984    1.0000 </r>
       <r>   -0.2293    1.0000 </r>
       <r>   -0.0282    1.0000 </r>
       <r>    2.0371    1.0000 </r>
       <r>    2.0371    1.0000 </r>
       <r>    2.5073    1.0000 </r>
       <r>    2.5708    1.0000 </r>
       <r>    2.5708    1.0000 </r>
       <r>    3.3654    1.0000 </r>
       <r>    3.3654    1.0000 </r>
       <r>    5.6923    0.0000 </r>
       <r>    5.6923    0.0000 </r>
       <r>    6.0297    0.0000 </r>
       <r>    6.9227    0.0000 </r>
       <r>    7.0212    0.0000 </r>
       <r>    7.5308    0.0000 </r>
      </set>
      <set comment="kpoint 2">
       <r>  -38.4472    1.0000 </r>
       <r>  -38.4029    1.0000 </r>
       <r>  -18.6704    1.0000 </r>
       <r>  -18.4850    1.0000 </r>
       <r>  -18.3906    1.0000 </r>
       <r>  -18.3562    1.0000 </r>
       <r>  -18.3024    1.0000 </r>
       <r>  -18.2912    1.0000 </r>
       <r>   -9.2673    1.0000 </r>
       <r>   -9.1936    1.0000 </r>
       <r>   -4.7221    1.0000 </r>
       <r>   -0.0648    1.0000 </r>
       <r>    0.1805    1.0000 </r>
       <r>    1.1220    1.0000 </r>
       <r>    1.2549    1.0000 </r>
       <r>    2.0481    1.0000 </r>
       <r>    2.2455    1.0000 </r>
       <r>    2.3999    1.0000 </r>
       <r>    2.5777    1.0000 </r>
       <r>    3.0254    1.0000 </r>
       <r>    4.8973    0.0000 </r>
       <r>    6.2659    0.0000 </r>
       <r>    6.3119    0.0000 </r>
       <r>    6.9566    0.0000 </r>
       <r>    7.3592    0.0000 </r>
       <r>    7.6421    0.0000 </r>
      </set>
      <set comment="kpoint 3">
       <r>  -38.4274    1.0000 </r>
       <r>  -38.4039    1.0000 </r>
       <r>  -18.6641    1.0000 </r>
       <r>  -18.6194    1.0000 </r>
       <r>  -18.4366    1.0000 </r>
       <r>  -18.4084    1.0000 </r>
       <r>  -18.3278    1.0000 </r>
       <r>  -18.3051    1.0000 </r>
       <r>   -8.8612    1.0000 </r>
       <r>   -8.8333    1.0000 </r>
       <r>   -4.4542    1.0000 </r>
       <r>   -0.5807    1.0000 </r>
       <r>   -0.4743    1.0000 </r>
       <r>    0.3057    1.0000 </r>
       <r>    0.7944    1.0000 </r>
       <r>    1.6946    1.0000 </r>
       <r>    1.8750    1.0000 </r>
       <r>    2.0171    1.0000 </r>
       <r>    2.7668    1.0000 </r>
       <r>    2.9831    1.0000 </r>
       <r>    4.0238    0.0000 </r>
       <r>    7.0794    0.0000 </r>
       <r>    7.1418    0.0000 </r>
       <r>    7.3568    0.0000 </r>
       <r>    7.4865    0.0000 </r>
       <r>    8.3084    0.0000 </r>
      </set>
      <set comment="kpoint 4">
       <r>  -38.4472    1.0000 </r>
       <r>  -38.4029    1.0000 </r>
       <r>  -18.6704    1.0000 </r>
       <r>  -18.4850    1.0000 </r>
       <r>  -18.3906    1.0000 </r>
       <r>  -18.3562    1.0000 </r>
       <r>  -18.3024    1.0000 </r>
       <r>  -18.2912    1.0000 </r>
       <r>   -9.2673    1.0000 </r>
       <r>   -9.1936    1.0000 </r>
       <r>   -4.7221    1.0000 </r>
       <r>   -0.0648    1.0000 </r>
       <r>    0.1805    1.0000 </r>
       <r>    1.1220    1.0000 </r>
       <r>    1.2549    1.0000 </r>
       <r>    2.0481    1.0000 </r>
       <r>    2.2455    1.0000 </r>
       <r>    2.3999    1.0000 </r>
       <r>    2.5777    1.0000 </r>
       <r>    3.0254    1.0000 </r>
       <r>    4.8973    0.0000 </r>
       <r>    6.2659    0.0000 </r>
       <r>    6.3119    0.0000 </r>
       <r>    6.9566    0.0000 </r>
       <r>    7.3592    0.0000 </r>
       <r>    7.6421    0.0000 </r>
      </set>
      <set comment="kpoint 5">
       <r>  -38.4318    1.0000 </r>
       <r>  -38.4031    1.0000 </r>
       <r>  -18.6464    1.0000 </r>
       <r>  -18.5682    1.0000 </r>
       <r>  -18.4890    1.0000 </r>
       <r>  -18.3662    1.0000 </r>
       <r>  -18.3379    1.0000 </r>
       <r>  -18.3054    1.0000 </r>
       <r>   -8.9463    1.0000 </r>
       <r>   -8.9056    1.0000 </r>
       <r>   -4.5048    1.0000 </r>
       <r>    0.0381    1.0000 </r>
       <r>    0.0539    1.0000 </r>
       <r>    0.2283    1.0000 </r>
       <r>    0.6481    1.0000 </r>
       <r>    1.3598    1.0000 </r>
       <r>    1.4282    1.0000 </r>
       <r>    2.1920    1.0000 </r>
       <r>    2.6327    1.0000 </r>
       <r>    2.7142    1.0000 </r>
       <r>    5.0499    0.0000 </r>
       <r>    5.6621    0.0000 </r>
       <r>    6.9328    0.0000 </r>
       <r>    7.7749    0.0000 </r>
       <r>    7.8016    0.0000 </r>
       <r>    8.3126    0.0000 </r>
      </set>
      <set comment="kpoint 6">
       <r>  -38.4182    1.0000 </r>
       <r>  -38.4073    1.0000 </r>
       <r>  -18.6448    1.0000 </r>
       <r>  -18.6140    1.0000 </r>
       <r>  -18.5212    1.0000 </r>
       <r>  -18.3924    1.0000 </r>
       <r>  -18.3425    1.0000 </r>
       <r>  -18.3306    1.0000 </r>
       <r>   -8.7236    1.0000 </r>
       <r>   -8.7130    1.0000 </r>
       <r>   -4.3705    1.0000 </r>
       <r>   -0.5172    1.0000 </r>
       <r>   -0.4794    1.0000 </r>
       <r>    0.6642    1.0000 </r>
       <r>    0.7677    1.0000 </r>
       <r>    0.7966    1.0000 </r>
       <r>    0.8433    1.0000 </r>
       <r>    1.9851    1.0000 </r>
       <r>    2.4311    1.0000 </r>
       <r>    2.9480    1.0000 </r>
       <r>    4.9416    0.0000 </r>
       <r>    6.5829    0.0000 </r>
       <r>    6.9987    0.0000 </r>
       <r>    7.6498    0.0000 </r>
       <r>    7.8417    0.0000 </r>
       <r>    8.3250    0.0000 </r>
      </set>
      <set comment="kpoint 7">
       <r>  -38.4318    1.0000 </r>
       <r>  -38.4031    1.0000 </r>
       <r>  -18.6464    1.0000 </r>
       <r>  -18.5682    1.0000 </r>
       <r>  -18.4890    1.0000 </r>
       <r>  -18.3662    1.0000 </r>
       <r>  -18.3379    1.0000 </r>
       <r>  -18.3054    1.0000 </r>
       <r>   -8.9463    1.0000 </r>
       <r>   -8.9056    1.0000 </r>
       <r>   -4.5048    1.0000 </r>
       <r>    0.0381    1.0000 </r>
       <r>    0.0539    1.0000 </r>
       <r>    0.2283    1.0000 </r>
       <r>    0.6481    1.0000 </r>
       <r>    1.3598    1.0000 </r>
       <r>    1.4282    1.0000 </r>
       <r>    2.1920    1.0000 </r>
       <r>    2.6327    1.0000 </r>
       <r>    2.7142    1.0000 </r>
       <r>    5.0499    0.0000 </r>
       <r>    5.6621    0.0000 </r>
       <r>    6.9328    0.0000 </r>
       <r>    7.7749    0.0000 </r>
       <r>    7.8016    0.0000 </r>
       <r>    8.3152    0.0000 </r>
      </set>
      <set comment="kpoint 8">
       <r>  -38.4472    1.0000 </r>
       <r>  -38.4029    1.0000 </r>
       <r>  -18.6704    1.0000 </r>
       <r>  -18.4850    1.0000 </r>
       <r>  -18.3906    1.0000 </r>
       <r>  -18.3562    1.0000 </r>
       <r>  -18.3024    1.0000 </r>
       <r>  -18.2912    1.0000 </r>
       <r>   -9.2673    1.0000 </r>
       <r>   -9.1936    1.0000 </r>
       <r>   -4.7221    1.0000 </r>
       <r>   -0.0648    1.0000 </r>
       <r>    0.1805    1.0000 </r>
       <r>    1.1220    1.0000 </r>
       <r>    1.2549    1.0000 </r>
       <r>    2.0481    1.0000 </r>
       <r>    2.2455    1.0000 </r>
       <r>    2.3999    1.0000 </r>
       <r>    2.5777    1.0000 </r>
       <r>    3.0254    1.0000 </r>
       <r>    4.8973    0.0000 </r>
       <r>    6.2659    0.0000 </r>
       <r>    6.3119    0.0000 </r>
       <r>    6.9566    0.0000 </r>
       <r>    7.3592    0.0000 </r>
       <r>    7.6421    0.0000 </r>
      </set>
      <set comment="kpoint 9">
       <r>  -38.4274    1.0000 </r>
       <r>  -38.4039    1.0000 </r>
       <r>  -18.6641    1.0000 </r>
       <r>  -18.6194    1.0000 </r>
       <r>  -18.4366    1.0000 </r>
       <r>  -18.4084    1.0000 </r>
       <r>  -18.3278    1.0000 </r>
       <r>  -18.3051    1.0000 </r>
       <r>   -8.8612    1.0000 </r>
       <r>   -8.8333    1.0000 </r>
       <r>   -4.4542    1.0000 </r>
       <r>   -0.5807    1.0000 </r>
       <r>   -0.4743    1.0000 </r>
       <r>    0.3057    1.0000 </r>
       <r>    0.7944    1.0000 </r>
       <r>    1.6946    1.0000 </r>
       <r>    1.8750    1.0000 </r>
       <r>    2.0171    1.0000 </r>
       <r>    2.7668    1.0000 </r>
       <r>    2.9831    1.0000 </r>
       <r>    4.0238    0.0000 </r>
       <r>    7.0794    0.0000 </r>
       <r>    7.1418    0.0000 </r>
       <r>    7.3568    0.0000 </r>
       <r>    7.4865    0.0000 </r>
       <r>    8.3064    0.0000 </r>
      </set>
      <set comment="kpoint 10">
       <r>  -38.4182    1.0000 </r>
       <r>  -38.4073    1.0000 </r>
       <r>  -18.6448    1.0000 </r>
       <r>  -18.6140    1.0000 </r>
       <r>  -18.5212    1.0000 </r>
       <r>  -18.3924    1.0000 </r>
       <r>  -18.3425    1.0000 </r>
       <r>  -18.3306    1.0000 </r>
       <r>   -8.7236    1.0000 </r>
       <r>   -8.7130    1.0000 </r>
       <r>   -4.3705    1.0000 </r>
       <r>   -0.5172    1.0000 </r>
       <r>   -0.4794    1.0000 </r>
       <r>    0.6642    1.0000 </r>
       <r>    0.7677    1.0000 </r>
       <r>    0.7966    1.0000 </r>
       <r>    0.8433    1.0000 </r>
       <r>    1.9851    1.0000 </r>
       <r>    2.4311    1.0000 </r>
       <r>    2.9480    1.0000 </r>
       <r>    4.9416    0.0000 </r>
       <r>    6.5829    0.0000 </r>
       <r>    6.9987    0.0000 </r>
       <r>    7.6498    0.0000 </r>
       <r>    7.8417    0.0000 </r>
       <r>    8.3251    0.0000 </r>
      </set>
      <set comment="kpoint 11">
       <r>  -38.4182    1.0000 </r>
       <r>  -38.4073    1.0000 </r>
       <r>  -18.6448    1.0000 </r>
       <r>  -18.6140    1.0000 </r>
       <r>  -18.5212    1.0000 </r>
       <r>  -18.3924    1.0000 </r>
       <r>  -18.3425    1.0000 </r>
       <r>  -18.3306    1.0000 </r>
       <r>   -8.7236    1.0000 </r>
       <r>   -8.7130    1.0000 </r>
       <r>   -4.3705    1.0000 </r>
       <r>   -0.5172    1.0000 </r>
       <r>   -0.4794    1.0000 </r>
       <r>    0.6642    1.0000 </r>
       <r>    0.7677    1.0000 </r>
       <r>    0.7966    1.0000 </r>
       <r>    0.8433    1.0000 </r>
       <r>    1.9851    1.0000 </r>
       <r>    2.4311    1.0000 </r>
       <r>    2.9480    1.0000 </r>
       <r>    4.9416    0.0000 </r>
       <r>    6.5829    0.0000 </r>
       <r>    6.9987    0.0000 </r>
       <r>    7.6498    0.0000 </r>
       <r>    7.8417    0.0000 </r>
       <r>    8.3250    0.0000 </r>
      </set>
      <set comment="kpoint 12">
       <r>  -38.4274    1.0000 </r>
       <r>  -38.4039    1.0000 </r>
       <r>  -18.6641    1.0000 </r>
       <r>  -18.6194    1.0000 </r>
       <r>  -18.4366    1.0000 </r>
       <r>  -18.4084    1.0000 </r>
       <r>  -18.3278    1.0000 </r>
       <r>  -18.3051    1.0000 </r>
       <r>   -8.8612    1.0000 </r>
       <r>   -8.8333    1.0000 </r>
       <r>   -4.4542    1.0000 </r>
       <r>   -0.5807    1.0000 </r>
       <r>   -0.4743    1.0000 </r>
       <r>    0.3057    1.0000 </r>
       <r>    0.7944    1.0000 </r>
       <r>    1.6946    1.0000 </r>
       <r>    1.8749    1.0000 </r>
       <r>    2.0171    1.0000 </r>
       <r>    2.7668    1.0000 </r>
       <r>    2.9831    1.0000 </r>
       <r>    4.0238    0.0000 </r>
       <r>    7.0794    0.0000 </r>
       <r>    7.1418    0.0000 </r>
       <r>    7.3568    0.0000 </r>
       <r>    7.4865    0.0000 </r>
       <r>    8.3192    0.0000 </r>
      </set>
      <set comment="kpoint 13">
       <r>  -38.4318    1.0000 </r>
       <r>  -38.4031    1.0000 </r>
       <r>  -18.6464    1.0000 </r>
       <r>  -18.5682    1.0000 </r>
       <r>  -18.4890    1.0000 </r>
       <r>  -18.3662    1.0000 </r>
       <r>  -18.3379    1.0000 </r>
       <r>  -18.3054    1.0000 </r>
       <r>   -8.9463    1.0000 </r>
       <r>   -8.9056    1.0000 </r>
       <r>   -4.5048    1.0000 </r>
       <r>    0.0381    1.0000 </r>
       <r>    0.0539    1.0000 </r>
       <r>    0.2283    1.0000 </r>
       <r>    0.6481    1.0000 </r>
       <r>    1.3598    1.0000 </r>
       <r>    1.4282    1.0000 </r>
       <r>    2.1920    1.0000 </r>
       <r>    2.6327    1.0000 </r>
       <r>    2.7142    1.0000 </r>
       <r>    5.0499    0.0000 </r>
       <r>    5.6621    0.0000 </r>
       <r>    6.9328    0.0000 </r>
       <r>    7.7749    0.0000 </r>
       <r>    7.8016    0.0000 </r>
       <r>    8.3130    0.0000 </r>
      </set>
      <set comment="kpoint 14">
       <r>  -38.4575    1.0000 </r>
       <r>  -38.4042    1.0000 </r>
       <r>  -18.7005    1.0000 </r>
       <r>  -18.3584    1.0000 </r>
       <r>  -18.3584    1.0000 </r>
       <r>  -18.3365    1.0000 </r>
       <r>  -18.2861    1.0000 </r>
       <r>  -18.2861    1.0000 </r>
       <r>   -9.4584    1.0000 </r>
       <r>   -9.4279    1.0000 </r>
       <r>   -4.8898    1.0000 </r>
       <r>   -0.6082    1.0000 </r>
       <r>    0.5794    1.0000 </r>
       <r>    2.0268    1.0000 </r>
       <r>    2.0268    1.0000 </r>
       <r>    2.1216    1.0000 </r>
       <r>    2.5982    1.0000 </r>
       <r>    2.5982    1.0000 </r>
       <r>    3.3433    1.0000 </r>
       <r>    3.3433    1.0000 </r>
       <r>    5.6941    0.0000 </r>
       <r>    5.6941    0.0000 </r>
       <r>    6.1723    0.0000 </r>
       <r>    6.9409    0.0000 </r>
       <r>    7.5391    0.0000 </r>
       <r>    7.6636    0.0000 </r>
      </set>
      <set comment="kpoint 15">
       <r>  -38.4472    1.0000 </r>
       <r>  -38.4029    1.0000 </r>
       <r>  -18.6704    1.0000 </r>
       <r>  -18.4850    1.0000 </r>
       <r>  -18.3906    1.0000 </r>
       <r>  -18.3562    1.0000 </r>
       <r>  -18.3024    1.0000 </r>
       <r>  -18.2912    1.0000 </r>
       <r>   -9.2510    1.0000 </r>
       <r>   -9.2105    1.0000 </r>
       <r>   -4.7194    1.0000 </r>
       <r>   -0.2149    1.0000 </r>
       <r>    0.4058    1.0000 </r>
       <r>    1.0916    1.0000 </r>
       <r>    1.2089    1.0000 </r>
       <r>    2.0207    1.0000 </r>
       <r>    2.2890    1.0000 </r>
       <r>    2.4314    1.0000 </r>
       <r>    2.5415    1.0000 </r>
       <r>    3.0061    1.0000 </r>
       <r>    4.8598    0.0000 </r>
       <r>    6.2830    0.0000 </r>
       <r>    6.3034    0.0000 </r>
       <r>    6.9895    0.0000 </r>
       <r>    7.3726    0.0000 </r>
       <r>    7.6854    0.0000 </r>
      </set>
      <set comment="kpoint 16">
       <r>  -38.4274    1.0000 </r>
       <r>  -38.4039    1.0000 </r>
       <r>  -18.6641    1.0000 </r>
       <r>  -18.6194    1.0000 </r>
       <r>  -18.4366    1.0000 </r>
       <r>  -18.4084    1.0000 </r>
       <r>  -18.3278    1.0000 </r>
       <r>  -18.3051    1.0000 </r>
       <r>   -8.8646    1.0000 </r>
       <r>   -8.8298    1.0000 </r>
       <r>   -4.4546    1.0000 </r>
       <r>   -0.6319    1.0000 </r>
       <r>   -0.4469    1.0000 </r>
       <r>    0.4824    1.0000 </r>
       <r>    0.6399    1.0000 </r>
       <r>    1.7361    1.0000 </r>
       <r>    1.8243    1.0000 </r>
       <r>    2.0122    1.0000 </r>
       <r>    2.7723    1.0000 </r>
       <r>    2.9950    1.0000 </r>
       <r>    4.0204    0.0000 </r>
       <r>    6.7174    0.0000 </r>
       <r>    7.1166    0.0000 </r>
       <r>    7.4836    0.0000 </r>
       <r>    7.8692    0.0000 </r>
       <r>    8.3581    0.0000 </r>
      </set>
      <set comment="kpoint 17">
       <r>  -38.4472    1.0000 </r>
       <r>  -38.4029    1.0000 </r>
       <r>  -18.6704    1.0000 </r>
       <r>  -18.4850    1.0000 </r>
       <r>  -18.3906    1.0000 </r>
       <r>  -18.3562    1.0000 </r>
       <r>  -18.3024    1.0000 </r>
       <r>  -18.2912    1.0000 </r>
       <r>   -9.2510    1.0000 </r>
       <r>   -9.2105    1.0000 </r>
       <r>   -4.7194    1.0000 </r>
       <r>   -0.2149    1.0000 </r>
       <r>    0.4058    1.0000 </r>
       <r>    1.0916    1.0000 </r>
       <r>    1.2089    1.0000 </r>
       <r>    2.0207    1.0000 </r>
       <r>    2.2890    1.0000 </r>
       <r>    2.4314    1.0000 </r>
       <r>    2.5415    1.0000 </r>
       <r>    3.0061    1.0000 </r>
       <r>    4.8598    0.0000 </r>
       <r>    6.2830    0.0000 </r>
       <r>    6.3034    0.0000 </r>
       <r>    6.9895    0.0000 </r>
       <r>    7.3726    0.0000 </r>
       <r>    7.6849    0.0000 </r>
      </set>
[...]
        <r>  0.0000  0.0000  0.0000  0.0000  0.0000  0.0000  0.0000  0.0000  0.0000  0.0000  0.0000  0.0000  0.0000  0.0000  0.0000  0.0000 </r>
        <r>  0.0000  0.0000  0.0000  0.0000  0.0000  0.0000  0.0000  0.0000  0.0000  0.0000  0.0000  0.0000  0.0000  0.0000  0.0000  0.0000 </r>
        <r>  0.0000  0.0000  0.0000  0.0000  0.0000  0.0000  0.0000  0.0000  0.0000  0.0000  0.0000  0.0000  0.0000  0.0000  0.0000  0.0000 </r>
       </set>
       <set comment="band 3">
        <r>  0.0000  0.1218  0.3192  0.0406  0.0000  0.0000  0.0000  0.0000  0.0000  0.0000  0.0000  0.0000  0.0000  0.0000  0.0000  0.0000 </r>
        <r>  0.0000  0.1218  0.3192  0.0406  0.0000  0.0000  0.0000  0.0000  0.0000  0.0000  0.0000  0.0000  0.0000  0.0000  0.0000  0.0000 </r>
        <r>  0.0021  0.0001  0.0000  0.0000  0.0000  0.0000  0.0000  0.0000  0.0000  0.0000  0.0000  0.0000  0.0000  0.0000  0.0000  0.0000 </r>
        <r>  0.0000  0.0001  0.0000  0.0001  0.0000  0.0000  0.0000  0.0000  0.0000  0.0000  0.0000  0.0000  0.0000  0.0000  0.0000  0.0000 </r>
        <r>  0.0000  0.0001  0.0000  0.0001  0.0000  0.0000  0.0000  0.0000  0.0000  0.0000  0.0000  0.0000  0.0000  0.0000  0.0000  0.0000 </r>
       </set>
       <set comment="band 4">
        <r>  0.0000  0.2494  0.1256  0.1080  0.0000  0.0000  0.0000  0.0000  0.0000  0.0000  0.0000  0.0000  0.0000  0.0000  0.0000  0.0000 </r>
        <r>  0.0000  0.2493  0.1256  0.1080  0.0000  0.0000  0.0000  0.0000  0.0000  0.0000  0.0000  0.0000  0.0000  0.0000  0.0000  0.0000 </r>
        <r>  0.0000  0.0001  0.0001  0.0004  0.0000  0.0000  0.0000  0.0000  0.0000  0.0000  0.0000  0.0000  0.0000  0.0000  0.0000  0.0000 </r>
        <r>  0.0008  0.0000  0.0002  0.0000  0.0000  0.0000  0.0000  0.0000  0.0000  0.0000  0.0000  0.0000  0.0000  0.0000  0.0000  0.0000 </r>
        <r>  0.0008  0.0000  0.0002  0.0000  0.0000  0.0000  0.0000  0.0000  0.0000  0.0000  0.0000  0.0000  0.0000  0.0000  0.0000  0.0000 </r>
       </set>
       <set comment="band 5">
        <r>  0.0000  0.1799  0.0815  0.2239  0.0000  0.0000  0.0000  0.0000  0.0000  0.0000  0.0000  0.0000  0.0000  0.0000  0.0000  0.0000 </r>
        <r>  0.0000  0.1799  0.0815  0.2239  0.0000  0.0000  0.0000  0.0000  0.0000  0.0000  0.0000  0.0000  0.0000  0.0000  0.0000  0.0000 </r>
        <r>  0.0008  0.0004  0.0000  0.0001  0.0000  0.0000  0.0000  0.0000  0.0000  0.0000  0.0000  0.0000  0.0000  0.0000  0.0000  0.0000 </r>
        <r>  0.0002  0.0001  0.0000  0.0000  0.0000  0.0000  0.0000  0.0000  0.0000  0.0000  0.0000  0.0000  0.0000  0.0000  0.0000  0.0000 </r>
        <r>  0.0002  0.0001  0.0000  0.0000  0.0000  0.0000  0.0000  0.0000  0.0000  0.0000  0.0000  0.0000  0.0000  0.0000  0.0000  0.0000 </r>
       </set>
       <set comment="band 6">
        <r>  0.0000  0.1824  0.0837  0.2219  0.0000  0.0000  0.0000  0.0000  0.0000  0.0000  0.0000  0.0000  0.0000  0.0000  0.0000  0.0000 </r>
        <r>  0.0000  0.1824  0.0837  0.2219  0.0000  0.0000  0.0000  0.0000  0.0000  0.0000  0.0000  0.0000  0.0000  0.0000  0.0000  0.0000 </r>
        <r>  0.0000  0.0000  0.0000  0.0000  0.0000  0.0000  0.0000  0.0000  0.0000  0.0000  0.0000  0.0000  0.0000  0.0000  0.0000  0.0000 </r>
        <r>  0.0006  0.0000  0.0002  0.0000  0.0000  0.0000  0.0000  0.0000  0.0000  0.0000  0.0000  0.0000  0.0000  0.0000  0.0000  0.0000 </r>
        <r>  0.0006  0.0000  0.0002  0.0000  0.0000  0.0000  0.0000  0.0000  0.0000  0.0000  0.0000  0.0000  0.0000  0.0000  0.0000  0.0000 </r>
       </set>
       <set comment="band 7">
        <r>  0.0000  0.1656  0.0450  0.2787  0.0000  0.0000  0.0000  0.0000  0.0000  0.0000  0.0000  0.0000  0.0000  0.0000  0.0000  0.0000 </r>
        <r>  0.0000  0.1656  0.0451  0.2787  0.0000  0.0000  0.0000  0.0000  0.0000  0.0000  0.0000  0.0000  0.0000  0.0000  0.0000  0.0000 </r>
        <r>  0.0000  0.0000  0.0003  0.0001  0.0000  0.0000  0.0000  0.0000  0.0000  0.0000  0.0000  0.0000  0.0000  0.0000  0.0000  0.0000 </r>
        <r>  0.0000  0.0000  0.0000  0.0001  0.0000  0.0000  0.0000  0.0000  0.0000  0.0000  0.0000  0.0000  0.0000  0.0000  0.0000  0.0000 </r>
        <r>  0.0000  0.0000  0.0000  0.0001  0.0000  0.0000  0.0000  0.0000  0.0000  0.0000  0.0000  0.0000  0.0000  0.0000  0.0000  0.0000 </r>
       </set>
       <set comment="band 8">
        <r>  0.0001  0.0710  0.3180  0.1014  0.0000  0.0000  0.0000  0.0000  0.0000  0.0000  0.0000  0.0000  0.0000  0.0000  0.0000  0.0000 </r>
        <r>  0.0001  0.0710  0.3180  0.1014  0.0000  0.0000  0.0000  0.0000  0.0000  0.0000  0.0000  0.0000  0.0000  0.0000  0.0000  0.0000 </r>
        <r>  0.0000  0.0000  0.0001  0.0000  0.0000  0.0000  0.0000  0.0000  0.0000  0.0000  0.0000  0.0000  0.0000  0.0000  0.0000  0.0000 </r>
        <r>  0.0000  0.0001  0.0000  0.0000  0.0000  0.0000  0.0000  0.0000  0.0000  0.0000  0.0000  0.0000  0.0000  0.0000  0.0000  0.0000 </r>
        <r>  0.0000  0.0001  0.0000  0.0000  0.0000  0.0000  0.0000  0.0000  0.0000  0.0000  0.0000  0.0000  0.0000  0.0000  0.0000  0.0000 </r>
       </set>
       <set comment="band 9">
        <r>  0.0010  0.0019  0.0023  0.0008  0.0002  0.0014  0.0001  0.0007  0.0003  0.0000  0.0000  0.0001  0.0000  0.0000  0.0001  0.0000 </r>
        <r>  0.0010  0.0019  0.0023  0.0008  0.0002  0.0014  0.0001  0.0007  0.0003  0.0000  0.0000  0.0001  0.0000  0.0000  0.0001  0.0000 </r>
        <r>  0.0000  0.0000  0.0000  0.0000  0.0000  0.0000  0.0000  0.0000  0.0000  0.0000  0.0000  0.0000  0.0000  0.0000  0.0000  0.0000 </r>
        <r>  0.3663  0.0004  0.0005  0.0001  0.0000  0.0000  0.0000  0.0000  0.0000  0.0000  0.0000  0.0000  0.0000  0.0000  0.0000  0.0000 </r>
        <r>  0.3662  0.0004  0.0005  0.0001  0.0000  0.0000  0.0000  0.0000  0.0000  0.0000  0.0000  0.0000  0.0000  0.0000  0.0000  0.0000 </r>
       </set>
       <set comment="band 10">
        <r>  0.0012  0.0023  0.0020  0.0010  0.0002  0.0012  0.0001  0.0005  0.0004  0.0000  0.0000  0.0001  0.0000  0.0000  0.0001  0.0000 </r>
        <r>  0.0012  0.0023  0.0020  0.0010  0.0002  0.0012  0.0001  0.0005  0.0004  0.0000  0.0000  0.0001  0.0000  0.0000  0.0001  0.0000 </r>
        <r>  0.0000  0.0000  0.0000  0.0000  0.0000  0.0000  0.0000  0.0000  0.0000  0.0000  0.0000  0.0000  0.0000  0.0000  0.0000  0.0000 </r>
        <r>  0.3682  0.0003  0.0007  0.0001  0.0000  0.0000  0.0000  0.0000  0.0000  0.0000  0.0000  0.0000  0.0000  0.0000  0.0000  0.0000 </r>
        <r>  0.3683  0.0003  0.0007  0.0001  0.0000  0.0000  0.0000  0.0000  0.0000  0.0000  0.0000  0.0000  0.0000  0.0000  0.0000  0.0000 </r>
       </set>
       <set comment="band 11">
        <r>  0.0122  0.0175  0.0070  0.0082  0.0038  0.0111  0.0002  0.0050  0.0073  0.0005  0.0004  0.0000  0.0004  0.0000  0.0007  0.0000 </r>
        <r>  0.0122  0.0175  0.0070  0.0082  0.0038  0.0111  0.0002  0.0050  0.0073  0.0005  0.0004  0.0000  0.0004  0.0000  0.0007  0.0000 </r>
        <r>  0.4193  0.0001  0.0000  0.0000  0.0000  0.0000  0.0000  0.0000  0.0000  0.0000  0.0000  0.0000  0.0000  0.0000  0.0000  0.0000 </r>
        <r>  0.0003  0.0003  0.0001  0.0002  0.0000  0.0000  0.0000  0.0000  0.0000  0.0000  0.0000  0.0000  0.0000  0.0000  0.0000  0.0000 </r>
        <r>  0.0003  0.0003  0.0001  0.0002  0.0000  0.0000  0.0000  0.0000  0.0000  0.0000  0.0000  0.0000  0.0000  0.0000  0.0000  0.0000 </r>
       </set>
       <set comment="band 12">
        <r>  0.0039  0.0017  0.0049  0.0045  0.0025  0.0023  0.0038  0.0053  0.0072  0.0001  0.0001  0.0001  0.0000  0.0002  0.0004  0.0000 </r>
        <r>  0.0039  0.0017  0.0049  0.0045  0.0025  0.0023  0.0038  0.0053  0.0072  0.0001  0.0001  0.0001  0.0000  0.0002  0.0004  0.0000 </r>
        <r>  0.0000  0.0000  0.0022  0.0001  0.0000  0.0000  0.0000  0.0000  0.0000  0.0000  0.0000  0.0000  0.0000  0.0000  0.0000  0.0000 </r>
        <r>  0.0047  0.1419  0.0174  0.0474  0.0000  0.0002  0.0005  0.0001  0.0000  0.0000  0.0000  0.0000  0.0000  0.0000  0.0000  0.0000 </r>
        <r>  0.0047  0.1419  0.0174  0.0474  0.0000  0.0002  0.0005  0.0001  0.0000  0.0000  0.0000  0.0000  0.0000  0.0000  0.0000  0.0000 </r>
       </set>
       <set comment="band 13">
        <r>  0.0154  0.0002  0.0058  0.0001  0.0001  0.0040  0.0043  0.0099  0.0001  0.0000  0.0002  0.0001  0.0000  0.0001  0.0006  0.0001 </r>
        <r>  0.0154  0.0002  0.0058  0.0001  0.0001  0.0040  0.0043  0.0099  0.0001  0.0000  0.0002  0.0001  0.0000  0.0001  0.0006  0.0001 </r>
        <r>  0.0062  0.0064  0.0000  0.0021  0.0000  0.0000  0.0000  0.0000  0.0000  0.0000  0.0000  0.0000  0.0000  0.0000  0.0000  0.0000 </r>
        <r>  0.0089  0.1409  0.0095  0.0470  0.0000  0.0004  0.0002  0.0001  0.0000  0.0000  0.0000  0.0000  0.0000  0.0000  0.0000  0.0000 </r>
        <r>  0.0089  0.1409  0.0095  0.0470  0.0000  0.0004  0.0002  0.0001  0.0000  0.0000  0.0000  0.0000  0.0000  0.0000  0.0000  0.0000 </r>
       </set>
       <set comment="band 14">
        <r>  0.0162  0.0113  0.0056  0.0038  0.0032  0.0096  0.0020  0.0037  0.0017  0.0001  0.0001  0.0001  0.0000  0.0000  0.0002  0.0001 </r>
        <r>  0.0162  0.0113  0.0056  0.0038  0.0032  0.0096  0.0020  0.0037  0.0017  0.0001  0.0001  0.0001  0.0000  0.0000  0.0002  0.0001 </r>
        <r>  0.0000  0.0009  0.0076  0.0028  0.0000  0.0000  0.0000  0.0000  0.0000  0.0000  0.0000  0.0000  0.0000  0.0000  0.0000  0.0000 </r>
        <r>  0.0058  0.0104  0.1829  0.0043  0.0000  0.0003  0.0001  0.0001  0.0000  0.0000  0.0000  0.0000  0.0000  0.0000  0.0000  0.0000 </r>
        <r>  0.0058  0.0104  0.1829  0.0043  0.0000  0.0003  0.0001  0.0001  0.0000  0.0000  0.0000  0.0000  0.0000  0.0000  0.0000  0.0000 </r>
       </set>
       <set comment="band 15">
        <r>  0.0142  0.0110  0.0015  0.0108  0.0074  0.0061  0.0003  0.0021  0.0189  0.0002  0.0001  0.0000  0.0002  0.0001  0.0001  0.0000 </r>
        <r>  0.0142  0.0110  0.0015  0.0108  0.0074  0.0061  0.0003  0.0021  0.0189  0.0002  0.0001  0.0000  0.0002  0.0001  0.0001  0.0000 </r>
        <r>  0.0014  0.0166  0.0000  0.0055  0.0000  0.0000  0.0000  0.0000  0.0000  0.0000  0.0000  0.0000  0.0000  0.0000  0.0000  0.0000 </r>
        <r>  0.0026  0.0161  0.1691  0.0055  0.0000  0.0000  0.0010  0.0000  0.0000  0.0000  0.0000  0.0000  0.0000  0.0000  0.0000  0.0000 </r>
        <r>  0.0026  0.0161  0.1691  0.0055  0.0000  0.0000  0.0010  0.0000  0.0000  0.0000  0.0000  0.0000  0.0000  0.0000  0.0000  0.0000 </r>
       </set>
       <set comment="band 16">
        <r>  0.0029  0.0063  0.0008  0.0049  0.0013  0.0125  0.0044  0.0081  0.0018  0.0001  0.0003  0.0004  0.0001  0.0004  0.0001  0.0002 </r>
        <r>  0.0030  0.0064  0.0008  0.0050  0.0014  0.0126  0.0045  0.0082  0.0018  0.0001  0.0003  0.0004  0.0001  0.0004  0.0001  0.0002 </r>
        <r>  0.0015  0.0008  0.0000  0.0003  0.0000  0.0000  0.0000  0.0000  0.0000  0.0000  0.0000  0.0000  0.0000  0.0000  0.0000  0.0000 </r>
        <r>  0.0000  0.0594  0.0014  0.1782  0.0005  0.0002  0.0000  0.0006  0.0016  0.0000  0.0000  0.0000  0.0000  0.0000  0.0000  0.0000 </r>
        <r>  0.0000  0.0586  0.0014  0.1757  0.0005  0.0002  0.0000  0.0006  0.0016  0.0000  0.0000  0.0000  0.0000  0.0000  0.0000  0.0000 </r>
       </set>
       <set comment="band 17">
        <r>  0.0039  0.0051  0.0038  0.0030  0.0033  0.0072  0.0021  0.0094  0.0013  0.0000  0.0001  0.0006  0.0000  0.0004  0.0000  0.0004 </r>
        <r>  0.0039  0.0051  0.0038  0.0030  0.0033  0.0071  0.0021  0.0093  0.0013  0.0000  0.0001  0.0006  0.0000  0.0004  0.0000  0.0004 </r>
        <r>  0.0000  0.0009  0.0000  0.0027  0.0000  0.0000  0.0000  0.0000  0.0000  0.0000  0.0000  0.0000  0.0000  0.0000  0.0000  0.0000 </r>
        <r>  0.0001  0.0604  0.0011  0.1796  0.0005  0.0002  0.0000  0.0005  0.0014  0.0000  0.0000  0.0000  0.0000  0.0000  0.0000  0.0000 </r>
        <r>  0.0001  0.0612  0.0011  0.1821  0.0005  0.0002  0.0000  0.0005  0.0014  0.0000  0.0000  0.0000  0.0000  0.0000  0.0000  0.0000 </r>
       </set>
       <set comment="band 18">
        <r>  0.0189  0.0036  0.0480  0.0095  0.0054  0.0126  0.0023  0.0316  0.0159  0.0002  0.0006  0.0002  0.0006  0.0001  0.0016  0.0002 </r>
        <r>  0.0189  0.0036  0.0480  0.0095  0.0054  0.0126  0.0023  0.0316  0.0159  0.0002  0.0006  0.0002  0.0006  0.0001  0.0016  0.0002 </r>
        <r>  0.0006  0.1298  0.0000  0.0433  0.0000  0.0000  0.0000  0.0000  0.0000  0.0000  0.0000  0.0000  0.0000  0.0000  0.0000  0.0000 </r>
        <r>  0.0002  0.0044  0.0589  0.0050  0.0001  0.0000  0.0001  0.0000  0.0000  0.0000  0.0000  0.0000  0.0000  0.0000  0.0000  0.0000 </r>
        <r>  0.0002  0.0044  0.0589  0.0050  0.0001  0.0000  0.0001  0.0000  0.0000  0.0000  0.0000  0.0000  0.0000  0.0000  0.0000  0.0000 </r>
       </set>
       <set comment="band 19">
        <r>  0.0091  0.0120  0.0143  0.0191  0.0236  0.0300  0.0004  0.0308  0.0237  0.0010  0.0012  0.0009  0.0001  0.0004  0.0004  0.0014 </r>
        <r>  0.0091  0.0120  0.0143  0.0191  0.0236  0.0300  0.0004  0.0308  0.0237  0.0010  0.0012  0.0009  0.0001  0.0004  0.0004  0.0014 </r>
        <r>  0.0000  0.0475  0.0383  0.1426  0.0000  0.0000  0.0000  0.0000  0.0000  0.0000  0.0000  0.0000  0.0000  0.0000  0.0000  0.0000 </r>
        <r>  0.0001  0.0046  0.0134  0.0023  0.0001  0.0000  0.0000  0.0000  0.0002  0.0000  0.0000  0.0000  0.0000  0.0000  0.0000  0.0000 </r>
        <r>  0.0001  0.0046  0.0134  0.0023  0.0001  0.0000  0.0000  0.0000  0.0002  0.0000  0.0000  0.0000  0.0000  0.0000  0.0000  0.0000 </r>
       </set>
       <set comment="band 20">
        <r>  0.0028  0.0366  0.0003  0.0122  0.0060  0.0273  0.0491  0.0117  0.0151  0.0005  0.0001  0.0010  0.0004  0.0008  0.0000  0.0001 </r>
        <r>  0.0028  0.0366  0.0003  0.0122  0.0060  0.0273  0.0491  0.0117  0.0151  0.0005  0.0001  0.0010  0.0004  0.0008  0.0000  0.0001 </r>
        <r>  0.0000  0.0107  0.1819  0.0322  0.0000  0.0000  0.0000  0.0000  0.0000  0.0000  0.0000  0.0000  0.0000  0.0000  0.0000  0.0000 </r>
        <r>  0.0002  0.0047  0.0069  0.0030  0.0000  0.0001  0.0002  0.0001  0.0000  0.0000  0.0000  0.0000  0.0000  0.0000  0.0000  0.0000 </r>
        <r>  0.0002  0.0047  0.0069  0.0030  0.0000  0.0001  0.0002  0.0001  0.0000  0.0000  0.0000  0.0000  0.0000  0.0000  0.0000  0.0000 </r>
       </set>
       <set comment="band 21">
        <r>  0.0000  0.0009  0.0006  0.0018  0.0579  0.0049  0.0787  0.0018  0.0993  0.0006  0.0009  0.0004  0.0009  0.0010  0.0007  0.0011 </r>
        <r>  0.0000  0.0009  0.0006  0.0018  0.0579  0.0049  0.0787  0.0018  0.0993  0.0006  0.0009  0.0004  0.0009  0.0010  0.0007  0.0011 </r>
        <r>  0.0000  0.0091  0.0075  0.0273  0.0000  0.0000  0.0000  0.0000  0.0000  0.0000  0.0000  0.0000  0.0000  0.0000  0.0000  0.0000 </r>
        <r>  0.0017  0.0054  0.0079  0.0031  0.0002  0.0013  0.0028  0.0006  0.0001  0.0000  0.0000  0.0000  0.0000  0.0000  0.0000  0.0000 </r>
        <r>  0.0017  0.0054  0.0079  0.0031  0.0002  0.0013  0.0028  0.0006  0.0001  0.0000  0.0000  0.0000  0.0000  0.0000  0.0000  0.0000 </r>
       </set>
       <set comment="band 22">
        <r>  0.0002  0.0003  0.0025  0.0001  0.0394  0.0552  0.0552  0.0660  0.0649  0.0008  0.0001  0.0007  0.0001  0.0017  0.0003  0.0010 </r>
        <r>  0.0002  0.0003  0.0025  0.0001  0.0394  0.0552  0.0552  0.0660  0.0649  0.0008  0.0001  0.0007  0.0001  0.0017  0.0003  0.0010 </r>
        <r>  0.0003  0.0080  0.0000  0.0027  0.0000  0.0000  0.0000  0.0000  0.0000  0.0000  0.0000  0.0000  0.0000  0.0000  0.0000  0.0000 </r>
        <r>  0.0001  0.0108  0.0005  0.0208  0.0005  0.0022  0.0000  0.0011  0.0012  0.0000  0.0000  0.0000  0.0000  0.0000  0.0000  0.0000 </r>
        <r>  0.0001  0.0108  0.0005  0.0208  0.0005  0.0022  0.0000  0.0011  0.0012  0.0000  0.0000  0.0000  0.0000  0.0000  0.0000  0.0000 </r>
       </set>
       <set comment="band 23">
        <r>  0.0001  0.0004  0.0014  0.0002  0.0762  0.0093  0.1384  0.0266  0.0613  0.0003  0.0004  0.0008  0.0017  0.0006  0.0001  0.0006 </r>
        <r>  0.0001  0.0004  0.0014  0.0002  0.0761  0.0093  0.1384  0.0266  0.0613  0.0003  0.0004  0.0008  0.0017  0.0006  0.0001  0.0006 </r>
        <r>  0.0025  0.0057  0.0000  0.0019  0.0000  0.0000  0.0000  0.0000  0.0000  0.0000  0.0000  0.0000  0.0000  0.0000  0.0000  0.0000 </r>
        <r>  0.0012  0.0078  0.0144  0.0026  0.0010  0.0022  0.0051  0.0020  0.0027  0.0000  0.0000  0.0000  0.0000  0.0000  0.0000  0.0000 </r>
        <r>  0.0012  0.0078  0.0144  0.0026  0.0010  0.0022  0.0051  0.0020  0.0027  0.0000  0.0000  0.0000  0.0000  0.0000  0.0000  0.0000 </r>
       </set>
       <set comment="band 24">
        <r>  0.0013  0.0037  0.0017  0.0016  0.0152  0.1336  0.0529  0.0748  0.0057  0.0004  0.0006  0.0001  0.0004  0.0002  0.0005  0.0001 </r>
        <r>  0.0013  0.0037  0.0017  0.0016  0.0152  0.1336  0.0530  0.0748  0.0057  0.0004  0.0006  0.0001  0.0004  0.0002  0.0005  0.0001 </r>
        <r>  0.0000  0.0008  0.0351  0.0023  0.0000  0.0000  0.0000  0.0000  0.0000  0.0000  0.0000  0.0000  0.0000  0.0000  0.0000  0.0000 </r>
        <r>  0.0024  0.0075  0.0060  0.0212  0.0006  0.0031  0.0025  0.0073  0.0011  0.0000  0.0000  0.0000  0.0000  0.0000  0.0000  0.0000 </r>
        <r>  0.0024  0.0075  0.0060  0.0212  0.0006  0.0031  0.0025  0.0073  0.0011  0.0000  0.0000  0.0000  0.0000  0.0000  0.0000  0.0000 </r>
       </set>
       <set comment="band 25">
        <r>  0.0003  0.0021  0.0004  0.0009  0.1504  0.0317  0.0775  0.0342  0.0503  0.0018  0.0002  0.0000  0.0003  0.0000  0.0003  0.0005 </r>
        <r>  0.0003  0.0021  0.0004  0.0009  0.1505  0.0317  0.0774  0.0342  0.0502  0.0018  0.0002  0.0000  0.0003  0.0000  0.0003  0.0005 </r>
        <r>  0.0038  0.0429  0.0000  0.0143  0.0000  0.0000  0.0000  0.0000  0.0000  0.0000  0.0000  0.0000  0.0000  0.0000  0.0000  0.0000 </r>
        <r>  0.0005  0.0039  0.0013  0.0058  0.0002  0.0024  0.0000  0.0025  0.0002  0.0000  0.0000  0.0000  0.0000  0.0000  0.0000  0.0000 </r>
        <r>  0.0005  0.0039  0.0013  0.0058  0.0002  0.0024  0.0000  0.0025  0.0002  0.0000  0.0000  0.0000  0.0000  0.0000  0.0000  0.0000 </r>
       </set>
       <set comment="band 26">
        <r>  0.0003  0.0105  0.0027  0.0117  0.0690  0.0442  0.0000  0.1029  0.0264  0.0000  0.0006  0.0010  0.0003  0.0012  0.0015  0.0015 </r>
        <r>  0.0003  0.0105  0.0027  0.0116  0.0691  0.0438  0.0000  0.1018  0.0266  0.0000  0.0006  0.0010  0.0003  0.0012  0.0016  0.0015 </r>
        <r>  0.0000  0.0017  0.0186  0.0051  0.0000  0.0000  0.0000  0.0000  0.0000  0.0000  0.0000  0.0000  0.0000  0.0000  0.0000  0.0000 </r>
        <r>  0.0107  0.0004  0.0005  0.0003  0.0016  0.0110  0.0013  0.0037  0.0007  0.0000  0.0000  0.0000  0.0000  0.0000  0.0000  0.0000 </r>
        <r>  0.0108  0.0004  0.0004  0.0003  0.0016  0.0109  0.0013  0.0037  0.0007  0.0000  0.0000  0.0000  0.0000  0.0000  0.0000  0.0000 </r>
       </set>
      </set>
     </set>
    </set>
   </array>
  </projected>
 </calculation>
 <structure name="finalpos" >
  <crystal>
   <varray name="basis" >
    <v>       3.88532200       0.00000200      -0.00000000 </v>
    <v>      -1.94266000       3.36478700      -0.00000000 </v>
    <v>      -0.00000100      -0.00000100      11.09957700 </v>
   </varray>
   <i name="volume">    145.10793174 </i>
   <varray name="rec_basis" >
    <v>       0.25737885       0.14859770       0.00000004 </v>
    <v>      -0.00000015       0.29719554       0.00000003 </v>
    <v>       0.00000000       0.00000000       0.09009352 </v>
   </varray>
  </crystal>
  <varray name="positions" >
   <v>       0.33333300       0.66666700       0.11777000 </v>
   <v>       0.66666700       0.33333300       0.88223000 </v>
   <v>       0.00000000       0.00000000       0.00000000 </v>
   <v>       0.33333300       0.66666700       0.68720500 </v>
   <v>       0.66666800       0.33333400       0.31279500 </v>
  </varray>
 </structure>
</modeling>
