<?xml version="1.0" encoding="ISO-8859-1"?>
<modeling>
 <generator>
  <i name="program" type="string">vasp </i>
  <i name="version" type="string">5.4.4.18Apr17-6-g9f103f2a35  </i>
  <i name="subversion" type="string">(build Feb  5 2022 00:56:52) complex            parallel </i>
  <i name="platform" type="string">LinuxGNU </i>
  <i name="date" type="string">2022 02 10 </i>
  <i name="time" type="string">18:22:49 </i>
 </generator>
 <incar>
  <i type="string" name="PREC">accurate</i>
  <i type="string" name="ALGO"> Fast</i>
  <i type="int" name="ISPIN">     2</i>
  <i type="int" name="ICHARG">     1</i>
  <i type="int" name="NELM">   200</i>
  <i type="int" name="NELMIN">     6</i>
  <i type="int" name="IBRION">    -1</i>
  <i name="EDIFF">      0.00001000</i>
  <i type="int" name="NSW">     0</i>
  <i type="int" name="ISIF">     3</i>
  <i type="int" name="ISYM">     0</i>
  <i name="ENCUT">    520.00000000</i>
  <v name="MAGMOM">      5.00000000</v>
  <i type="string" name="LREAL"> Auto</i>
  <i type="int" name="ISMEAR">     0</i>
  <i name="SIGMA">      0.01000000</i>
  <i name="KSPACING">      0.50000000</i>
  <i type="logical" name="LWAVE"> F  </i>
  <i type="int" name="LORBIT">    11</i>
  <v type="int" name="KPOINT_BSE">    -1     0     0     0</v>
  <i type="int" name="NELM">   200</i>
 </incar>
 <structure name="primitive_cell" >
  <crystal>
   <varray name="basis" >
    <v>       2.31889200       0.00000000      -0.81985200 </v>
    <v>      -1.15944600       2.00822000      -0.81985200 </v>
    <v>       0.00000000       0.00000000       2.45955700 </v>
   </varray>
   <i name="volume">     11.45377644 </i>
   <varray name="rec_basis" >
    <v>       0.43124044       0.24897671      -0.00000000 </v>
    <v>      -0.00000000       0.49795341       0.00000000 </v>
    <v>       0.14374675       0.24897660       0.40657728 </v>
   </varray>
  </crystal>
  <varray name="positions" >
   <v>       0.00000000       0.00000000       0.00000000 </v>
  </varray>
 </structure>
 <varray name="primitive_index" >
  <v type="int" >        1 </v>
 </varray>
 <kpoints>
  <varray name="kpointlist" >
   <v>       0.00000000       0.00000000       0.00000000 </v>
   <v>       0.01111111      -0.01111111       0.01111111 </v>
   <v>       0.02222222      -0.02222222       0.02222222 </v>
   <v>       0.03333333      -0.03333333       0.03333333 </v>
   <v>       0.04444444      -0.04444444       0.04444444 </v>
   <v>       0.05555556      -0.05555556       0.05555556 </v>
   <v>       0.06666667      -0.06666667       0.06666667 </v>
   <v>       0.07777778      -0.07777778       0.07777778 </v>
   <v>       0.08888889      -0.08888889       0.08888889 </v>
   <v>       0.10000000      -0.10000000       0.10000000 </v>
   <v>       0.11111111      -0.11111111       0.11111111 </v>
   <v>       0.12222222      -0.12222222       0.12222222 </v>
   <v>       0.13333333      -0.13333333       0.13333333 </v>
   <v>       0.14444444      -0.14444444       0.14444444 </v>
   <v>       0.15555556      -0.15555556       0.15555556 </v>
   <v>       0.16666667      -0.16666667       0.16666667 </v>
   <v>       0.17777778      -0.17777778       0.17777778 </v>
   <v>       0.18888889      -0.18888889       0.18888889 </v>
   <v>       0.20000000      -0.20000000       0.20000000 </v>
   <v>       0.21111111      -0.21111111       0.21111111 </v>
   <v>       0.22222222      -0.22222222       0.22222222 </v>
   <v>       0.23333333      -0.23333333       0.23333333 </v>
   <v>       0.24444444      -0.24444444       0.24444444 </v>
   <v>       0.25555556      -0.25555556       0.25555556 </v>
   <v>       0.26666667      -0.26666667       0.26666667 </v>
   <v>       0.27777778      -0.27777778       0.27777778 </v>
   <v>       0.28888889      -0.28888889       0.28888889 </v>
   <v>       0.30000000      -0.30000000       0.30000000 </v>
   <v>       0.31111111      -0.31111111       0.31111111 </v>
   <v>       0.32222222      -0.32222222       0.32222222 </v>
   <v>       0.33333333      -0.33333333       0.33333333 </v>
   <v>       0.34444444      -0.34444444       0.34444444 </v>
   <v>       0.35555556      -0.35555556       0.35555556 </v>
   <v>       0.36666667      -0.36666667       0.36666667 </v>
   <v>       0.37777778      -0.37777778       0.37777778 </v>
   <v>       0.38888889      -0.38888889       0.38888889 </v>
   <v>       0.40000000      -0.40000000       0.40000000 </v>
   <v>       0.41111111      -0.41111111       0.41111111 </v>
   <v>       0.42222222      -0.42222222       0.42222222 </v>
   <v>       0.43333333      -0.43333333       0.43333333 </v>
   <v>       0.44444444      -0.44444444       0.44444444 </v>
   <v>       0.45555556      -0.45555556       0.45555556 </v>
   <v>       0.46666667      -0.46666667       0.46666667 </v>
   <v>       0.47777778      -0.47777778       0.47777778 </v>
   <v>       0.48888889      -0.48888889       0.48888889 </v>
   <v>       0.50000000      -0.50000000       0.50000000 </v>
   <v>       0.50000000      -0.50000000       0.50000000 </v>
   <v>       0.48437500      -0.48437500       0.50000000 </v>
   <v>       0.46875000      -0.46875000       0.50000000 </v>
   <v>       0.45312500      -0.45312500       0.50000000 </v>
   <v>       0.43750000      -0.43750000       0.50000000 </v>
   <v>       0.42187500      -0.42187500       0.50000000 </v>
   <v>       0.40625000      -0.40625000       0.50000000 </v>
   <v>       0.39062500      -0.39062500       0.50000000 </v>
   <v>       0.37500000      -0.37500000       0.50000000 </v>
   <v>       0.35937500      -0.35937500       0.50000000 </v>
   <v>       0.34375000      -0.34375000       0.50000000 </v>
   <v>       0.32812500      -0.32812500       0.50000000 </v>
   <v>       0.31250000      -0.31250000       0.50000000 </v>
   <v>       0.29687500      -0.29687500       0.50000000 </v>
   <v>       0.28125000      -0.28125000       0.50000000 </v>
   <v>       0.26562500      -0.26562500       0.50000000 </v>
   <v>       0.25000000      -0.25000000       0.50000000 </v>
   <v>       0.23437500      -0.23437500       0.50000000 </v>
   <v>       0.21875000      -0.21875000       0.50000000 </v>
   <v>       0.20312500      -0.20312500       0.50000000 </v>
   <v>       0.18750000      -0.18750000       0.50000000 </v>
   <v>       0.17187500      -0.17187500       0.50000000 </v>
   <v>       0.15625000      -0.15625000       0.50000000 </v>
   <v>       0.14062500      -0.14062500       0.50000000 </v>
   <v>       0.12500000      -0.12500000       0.50000000 </v>
   <v>       0.10937500      -0.10937500       0.50000000 </v>
   <v>       0.09375000      -0.09375000       0.50000000 </v>
   <v>       0.07812500      -0.07812500       0.50000000 </v>
   <v>       0.06250000      -0.06250000       0.50000000 </v>
   <v>       0.04687500      -0.04687500       0.50000000 </v>
   <v>       0.03125000      -0.03125000       0.50000000 </v>
   <v>       0.01562500      -0.01562500       0.50000000 </v>
   <v>       0.00000000       0.00000000       0.50000000 </v>
   <v>       0.00000000       0.00000000       0.50000000 </v>
   <v>       0.00000000       0.00000000       0.48437500 </v>
   <v>       0.00000000       0.00000000       0.46875000 </v>
   <v>       0.00000000       0.00000000       0.45312500 </v>
   <v>       0.00000000       0.00000000       0.43750000 </v>
   <v>       0.00000000       0.00000000       0.42187500 </v>
   <v>       0.00000000       0.00000000       0.40625000 </v>
   <v>       0.00000000       0.00000000       0.39062500 </v>
   <v>       0.00000000       0.00000000       0.37500000 </v>
   <v>       0.00000000       0.00000000       0.35937500 </v>
   <v>       0.00000000       0.00000000       0.34375000 </v>
   <v>       0.00000000       0.00000000       0.32812500 </v>
   <v>       0.00000000       0.00000000       0.31250000 </v>
   <v>       0.00000000       0.00000000       0.29687500 </v>
   <v>       0.00000000       0.00000000       0.28125000 </v>
   <v>       0.00000000       0.00000000       0.26562500 </v>
   <v>       0.00000000       0.00000000       0.25000000 </v>
   <v>       0.00000000       0.00000000       0.23437500 </v>
   <v>       0.00000000       0.00000000       0.21875000 </v>
   <v>       0.00000000       0.00000000       0.20312500 </v>
   <v>       0.00000000       0.00000000       0.18750000 </v>
   <v>       0.00000000       0.00000000       0.17187500 </v>
   <v>       0.00000000       0.00000000       0.15625000 </v>
   <v>       0.00000000       0.00000000       0.14062500 </v>
   <v>       0.00000000       0.00000000       0.12500000 </v>
   <v>       0.00000000       0.00000000       0.10937500 </v>
   <v>       0.00000000       0.00000000       0.09375000 </v>
   <v>       0.00000000       0.00000000       0.07812500 </v>
   <v>       0.00000000       0.00000000       0.06250000 </v>
   <v>       0.00000000       0.00000000       0.04687500 </v>
   <v>       0.00000000       0.00000000       0.03125000 </v>
   <v>       0.00000000       0.00000000       0.01562500 </v>
   <v>       0.00000000       0.00000000       0.00000000 </v>
   <v>       0.00000000       0.00000000       0.00000000 </v>
   <v>       0.00641026       0.00641026       0.00641026 </v>
   <v>       0.01282051       0.01282051       0.01282051 </v>
   <v>       0.01923077       0.01923077       0.01923077 </v>
   <v>       0.02564103       0.02564103       0.02564103 </v>
   <v>       0.03205128       0.03205128       0.03205128 </v>
   <v>       0.03846154       0.03846154       0.03846154 </v>
   <v>       0.04487179       0.04487179       0.04487179 </v>
   <v>       0.05128205       0.05128205       0.05128205 </v>
   <v>       0.05769231       0.05769231       0.05769231 </v>
   <v>       0.06410256       0.06410256       0.06410256 </v>
   <v>       0.07051282       0.07051282       0.07051282 </v>
   <v>       0.07692308       0.07692308       0.07692308 </v>
   <v>       0.08333333       0.08333333       0.08333333 </v>
   <v>       0.08974359       0.08974359       0.08974359 </v>
   <v>       0.09615385       0.09615385       0.09615385 </v>
   <v>       0.10256410       0.10256410       0.10256410 </v>
   <v>       0.10897436       0.10897436       0.10897436 </v>
   <v>       0.11538462       0.11538462       0.11538462 </v>
   <v>       0.12179487       0.12179487       0.12179487 </v>
   <v>       0.12820513       0.12820513       0.12820513 </v>
   <v>       0.13461538       0.13461538       0.13461538 </v>
   <v>       0.14102564       0.14102564       0.14102564 </v>
   <v>       0.14743590       0.14743590       0.14743590 </v>
   <v>       0.15384615       0.15384615       0.15384615 </v>
   <v>       0.16025641       0.16025641       0.16025641 </v>
   <v>       0.16666667       0.16666667       0.16666667 </v>
   <v>       0.17307692       0.17307692       0.17307692 </v>
   <v>       0.17948718       0.17948718       0.17948718 </v>
   <v>       0.18589744       0.18589744       0.18589744 </v>
   <v>       0.19230769       0.19230769       0.19230769 </v>
   <v>       0.19871795       0.19871795       0.19871795 </v>
   <v>       0.20512821       0.20512821       0.20512821 </v>
   <v>       0.21153846       0.21153846       0.21153846 </v>
   <v>       0.21794872       0.21794872       0.21794872 </v>
   <v>       0.22435897       0.22435897       0.22435897 </v>
   <v>       0.23076923       0.23076923       0.23076923 </v>
   <v>       0.23717949       0.23717949       0.23717949 </v>
   <v>       0.24358974       0.24358974       0.24358974 </v>
   <v>       0.25000000       0.25000000       0.25000000 </v>
   <v>       0.25000000       0.25000000       0.25000000 </v>
   <v>       0.25641026       0.23076923       0.25641026 </v>
   <v>       0.26282051       0.21153846       0.26282051 </v>
   <v>       0.26923077       0.19230769       0.26923077 </v>
   <v>       0.27564103       0.17307692       0.27564103 </v>
   <v>       0.28205128       0.15384615       0.28205128 </v>
   <v>       0.28846154       0.13461538       0.28846154 </v>
   <v>       0.29487179       0.11538462       0.29487179 </v>
   <v>       0.30128205       0.09615385       0.30128205 </v>
   <v>       0.30769231       0.07692308       0.30769231 </v>
   <v>       0.31410256       0.05769231       0.31410256 </v>
   <v>       0.32051282       0.03846154       0.32051282 </v>
   <v>       0.32692308       0.01923077       0.32692308 </v>
   <v>       0.33333333       0.00000000       0.33333333 </v>
   <v>       0.33974359      -0.01923077       0.33974359 </v>
   <v>       0.34615385      -0.03846154       0.34615385 </v>
   <v>       0.35256410      -0.05769231       0.35256410 </v>
   <v>       0.35897436      -0.07692308       0.35897436 </v>
   <v>       0.36538462      -0.09615385       0.36538462 </v>
   <v>       0.37179487      -0.11538462       0.37179487 </v>
   <v>       0.37820513      -0.13461538       0.37820513 </v>
   <v>       0.38461538      -0.15384615       0.38461538 </v>
   <v>       0.39102564      -0.17307692       0.39102564 </v>
   <v>       0.39743590      -0.19230769       0.39743590 </v>
   <v>       0.40384615      -0.21153846       0.40384615 </v>
   <v>       0.41025641      -0.23076923       0.41025641 </v>
   <v>       0.41666667      -0.25000000       0.41666667 </v>
   <v>       0.42307692      -0.26923077       0.42307692 </v>
   <v>       0.42948718      -0.28846154       0.42948718 </v>
   <v>       0.43589744      -0.30769231       0.43589744 </v>
   <v>       0.44230769      -0.32692308       0.44230769 </v>
   <v>       0.44871795      -0.34615385       0.44871795 </v>
   <v>       0.45512821      -0.36538462       0.45512821 </v>
   <v>       0.46153846      -0.38461538       0.46153846 </v>
   <v>       0.46794872      -0.40384615       0.46794872 </v>
   <v>       0.47435897      -0.42307692       0.47435897 </v>
   <v>       0.48076923      -0.44230769       0.48076923 </v>
   <v>       0.48717949      -0.46153846       0.48717949 </v>
   <v>       0.49358974      -0.48076923       0.49358974 </v>
   <v>       0.50000000      -0.50000000       0.50000000 </v>
   <v>       0.25000000       0.25000000       0.25000000 </v>
   <v>       0.23913043       0.23913043       0.26086957 </v>
   <v>       0.22826087       0.22826087       0.27173913 </v>
   <v>       0.21739130       0.21739130       0.28260870 </v>
   <v>       0.20652174       0.20652174       0.29347826 </v>
   <v>       0.19565217       0.19565217       0.30434783 </v>
   <v>       0.18478261       0.18478261       0.31521739 </v>
   <v>       0.17391304       0.17391304       0.32608696 </v>
   <v>       0.16304348       0.16304348       0.33695652 </v>
   <v>       0.15217391       0.15217391       0.34782609 </v>
   <v>       0.14130435       0.14130435       0.35869565 </v>
   <v>       0.13043478       0.13043478       0.36956522 </v>
   <v>       0.11956522       0.11956522       0.38043478 </v>
   <v>       0.10869565       0.10869565       0.39130435 </v>
   <v>       0.09782609       0.09782609       0.40217391 </v>
   <v>       0.08695652       0.08695652       0.41304348 </v>
   <v>       0.07608696       0.07608696       0.42391304 </v>
   <v>       0.06521739       0.06521739       0.43478261 </v>
   <v>       0.05434783       0.05434783       0.44565217 </v>
   <v>       0.04347826       0.04347826       0.45652174 </v>
   <v>       0.03260870       0.03260870       0.46739130 </v>
   <v>       0.02173913       0.02173913       0.47826087 </v>
   <v>       0.01086957       0.01086957       0.48913043 </v>
   <v>      -0.00000000       0.00000000       0.50000000 </v>
  </varray>
  <varray name="weights" >
   <v>       0.00462963 </v>
   <v>       0.00462963 </v>
   <v>       0.00462963 </v>
   <v>       0.00462963 </v>
   <v>       0.00462963 </v>
   <v>       0.00462963 </v>
   <v>       0.00462963 </v>
   <v>       0.00462963 </v>
   <v>       0.00462963 </v>
   <v>       0.00462963 </v>
   <v>       0.00462963 </v>
   <v>       0.00462963 </v>
   <v>       0.00462963 </v>
   <v>       0.00462963 </v>
   <v>       0.00462963 </v>
   <v>       0.00462963 </v>
   <v>       0.00462963 </v>
   <v>       0.00462963 </v>
   <v>       0.00462963 </v>
   <v>       0.00462963 </v>
   <v>       0.00462963 </v>
   <v>       0.00462963 </v>
   <v>       0.00462963 </v>
   <v>       0.00462963 </v>
   <v>       0.00462963 </v>
   <v>       0.00462963 </v>
   <v>       0.00462963 </v>
   <v>       0.00462963 </v>
   <v>       0.00462963 </v>
   <v>       0.00462963 </v>
   <v>       0.00462963 </v>
   <v>       0.00462963 </v>
   <v>       0.00462963 </v>
   <v>       0.00462963 </v>
   <v>       0.00462963 </v>
   <v>       0.00462963 </v>
   <v>       0.00462963 </v>
   <v>       0.00462963 </v>
   <v>       0.00462963 </v>
   <v>       0.00462963 </v>
   <v>       0.00462963 </v>
   <v>       0.00462963 </v>
   <v>       0.00462963 </v>
   <v>       0.00462963 </v>
   <v>       0.00462963 </v>
   <v>       0.00462963 </v>
   <v>       0.00462963 </v>
   <v>       0.00462963 </v>
   <v>       0.00462963 </v>
   <v>       0.00462963 </v>
   <v>       0.00462963 </v>
   <v>       0.00462963 </v>
   <v>       0.00462963 </v>
   <v>       0.00462963 </v>
   <v>       0.00462963 </v>
   <v>       0.00462963 </v>
   <v>       0.00462963 </v>
   <v>       0.00462963 </v>
   <v>       0.00462963 </v>
   <v>       0.00462963 </v>
   <v>       0.00462963 </v>
   <v>       0.00462963 </v>
   <v>       0.00462963 </v>
   <v>       0.00462963 </v>
   <v>       0.00462963 </v>
   <v>       0.00462963 </v>
   <v>       0.00462963 </v>
   <v>       0.00462963 </v>
   <v>       0.00462963 </v>
   <v>       0.00462963 </v>
   <v>       0.00462963 </v>
   <v>       0.00462963 </v>
   <v>       0.00462963 </v>
   <v>       0.00462963 </v>
   <v>       0.00462963 </v>
   <v>       0.00462963 </v>
   <v>       0.00462963 </v>
   <v>       0.00462963 </v>
   <v>       0.00462963 </v>
   <v>       0.00462963 </v>
   <v>       0.00462963 </v>
   <v>       0.00462963 </v>
   <v>       0.00462963 </v>
   <v>       0.00462963 </v>
   <v>       0.00462963 </v>
   <v>       0.00462963 </v>
   <v>       0.00462963 </v>
   <v>       0.00462963 </v>
   <v>       0.00462963 </v>
   <v>       0.00462963 </v>
   <v>       0.00462963 </v>
   <v>       0.00462963 </v>
   <v>       0.00462963 </v>
   <v>       0.00462963 </v>
   <v>       0.00462963 </v>
   <v>       0.00462963 </v>
   <v>       0.00462963 </v>
   <v>       0.00462963 </v>
   <v>       0.00462963 </v>
   <v>       0.00462963 </v>
   <v>       0.00462963 </v>
   <v>       0.00462963 </v>
   <v>       0.00462963 </v>
   <v>       0.00462963 </v>
   <v>       0.00462963 </v>
   <v>       0.00462963 </v>
   <v>       0.00462963 </v>
   <v>       0.00462963 </v>
   <v>       0.00462963 </v>
   <v>       0.00462963 </v>
   <v>       0.00462963 </v>
   <v>       0.00462963 </v>
   <v>       0.00462963 </v>
   <v>       0.00462963 </v>
   <v>       0.00462963 </v>
   <v>       0.00462963 </v>
   <v>       0.00462963 </v>
   <v>       0.00462963 </v>
   <v>       0.00462963 </v>
   <v>       0.00462963 </v>
   <v>       0.00462963 </v>
   <v>       0.00462963 </v>
   <v>       0.00462963 </v>
   <v>       0.00462963 </v>
   <v>       0.00462963 </v>
   <v>       0.00462963 </v>
   <v>       0.00462963 </v>
   <v>       0.00462963 </v>
   <v>       0.00462963 </v>
   <v>       0.00462963 </v>
   <v>       0.00462963 </v>
   <v>       0.00462963 </v>
   <v>       0.00462963 </v>
   <v>       0.00462963 </v>
   <v>       0.00462963 </v>
   <v>       0.00462963 </v>
   <v>       0.00462963 </v>
   <v>       0.00462963 </v>
   <v>       0.00462963 </v>
   <v>       0.00462963 </v>
   <v>       0.00462963 </v>
   <v>       0.00462963 </v>
   <v>       0.00462963 </v>
   <v>       0.00462963 </v>
   <v>       0.00462963 </v>
   <v>       0.00462963 </v>
   <v>       0.00462963 </v>
   <v>       0.00462963 </v>
   <v>       0.00462963 </v>
   <v>       0.00462963 </v>
   <v>       0.00462963 </v>
   <v>       0.00462963 </v>
   <v>       0.00462963 </v>
   <v>       0.00462963 </v>
   <v>       0.00462963 </v>
   <v>       0.00462963 </v>
   <v>       0.00462963 </v>
   <v>       0.00462963 </v>
   <v>       0.00462963 </v>
   <v>       0.00462963 </v>
   <v>       0.00462963 </v>
   <v>       0.00462963 </v>
   <v>       0.00462963 </v>
   <v>       0.00462963 </v>
   <v>       0.00462963 </v>
   <v>       0.00462963 </v>
   <v>       0.00462963 </v>
   <v>       0.00462963 </v>
   <v>       0.00462963 </v>
   <v>       0.00462963 </v>
   <v>       0.00462963 </v>
   <v>       0.00462963 </v>
   <v>       0.00462963 </v>
   <v>       0.00462963 </v>
   <v>       0.00462963 </v>
   <v>       0.00462963 </v>
   <v>       0.00462963 </v>
   <v>       0.00462963 </v>
   <v>       0.00462963 </v>
   <v>       0.00462963 </v>
   <v>       0.00462963 </v>
   <v>       0.00462963 </v>
   <v>       0.00462963 </v>
   <v>       0.00462963 </v>
   <v>       0.00462963 </v>
   <v>       0.00462963 </v>
   <v>       0.00462963 </v>
   <v>       0.00462963 </v>
   <v>       0.00462963 </v>
   <v>       0.00462963 </v>
   <v>       0.00462963 </v>
   <v>       0.00462963 </v>
   <v>       0.00462963 </v>
   <v>       0.00462963 </v>
   <v>       0.00462963 </v>
   <v>       0.00462963 </v>
   <v>       0.00462963 </v>
   <v>       0.00462963 </v>
   <v>       0.00462963 </v>
   <v>       0.00462963 </v>
   <v>       0.00462963 </v>
   <v>       0.00462963 </v>
   <v>       0.00462963 </v>
   <v>       0.00462963 </v>
   <v>       0.00462963 </v>
   <v>       0.00462963 </v>
   <v>       0.00462963 </v>
   <v>       0.00462963 </v>
   <v>       0.00462963 </v>
   <v>       0.00462963 </v>
   <v>       0.00462963 </v>
   <v>       0.00462963 </v>
   <v>       0.00462963 </v>
   <v>       0.00462963 </v>
   <v>       0.00462963 </v>
   <v>       0.00462963 </v>
  </varray>
 </kpoints>
 <parameters>
  <separator name="general" >
   <i type="string" name="SYSTEM">unknown system</i>
   <i type="logical" name="LCOMPAT"> F  </i>
  </separator>
  <separator name="electronic" >
   <i type="string" name="PREC">accura</i>
   <i name="ENMAX">    520.00000000</i>
   <i name="ENAUG">    511.36800000</i>
   <i name="EDIFF">      0.00001000</i>
   <i type="int" name="IALGO">    68</i>
   <i type="int" name="IWAVPR">    10</i>
   <i type="int" name="NBANDS">    11</i>
   <i name="NELECT">      8.00000000</i>
   <i type="int" name="TURBO">     0</i>
   <i type="int" name="IRESTART">     0</i>
   <i type="int" name="NREBOOT">     0</i>
   <i type="int" name="NMIN">     0</i>
   <i name="EREF">      0.00000000</i>
   <separator name="electronic smearing" >
    <i type="int" name="ISMEAR">     0</i>
    <i name="SIGMA">      0.01000000</i>
    <i name="KSPACING">      0.50000000</i>
    <i type="logical" name="KGAMMA"> T  </i>
   </separator>
   <separator name="electronic projectors" >
    <i type="logical" name="LREAL"> T  </i>
    <v name="ROPT">     -0.00025000</v>
    <i type="int" name="LMAXPAW">  -100</i>
    <i type="int" name="LMAXMIX">     2</i>
    <i type="logical" name="NLSPLINE"> F  </i>
   </separator>
   <separator name="electronic startup" >
    <i type="int" name="ISTART">     0</i>
    <i type="int" name="ICHARG">     1</i>
    <i type="int" name="INIWAV">     1</i>
   </separator>
   <separator name="electronic spin" >
    <i type="int" name="ISPIN">     2</i>
    <i type="logical" name="LNONCOLLINEAR"> F  </i>
    <v name="MAGMOM">      5.00000000</v>
    <i name="NUPDOWN">     -1.00000000</i>
    <i type="logical" name="LSORBIT"> F  </i>
    <v name="SAXIS">      0.00000000      0.00000000      1.00000000</v>
    <i type="logical" name="LSPIRAL"> F  </i>
    <v name="QSPIRAL">      0.00000000      0.00000000      0.00000000</v>
    <i type="logical" name="LZEROZ"> F  </i>
   </separator>
   <separator name="electronic exchange-correlation" >
    <i type="logical" name="LASPH"> F  </i>
    <i type="logical" name="LMETAGGA"> F  </i>
   </separator>
   <separator name="electronic convergence" >
    <i type="int" name="NELM">   200</i>
    <i type="int" name="NELMDL">    -5</i>
    <i type="int" name="NELMIN">     6</i>
    <i name="ENINI">    520.00000000</i>
    <separator name="electronic convergence detail" >
     <i type="logical" name="LDIAG"> T  </i>
     <i type="logical" name="LSUBROT"> F  </i>
     <i name="WEIMIN">      0.00000000</i>
     <i name="EBREAK">      0.00000023</i>
     <i name="DEPER">      0.30000000</i>
     <i type="int" name="NRMM">     4</i>
     <i name="TIME">      0.40000000</i>
    </separator>
   </separator>
   <separator name="electronic mixer" >
    <i name="AMIX">      0.40000000</i>
    <i name="BMIX">      1.00000000</i>
    <i name="AMIN">      0.10000000</i>
    <i name="AMIX_MAG">      1.60000000</i>
    <i name="BMIX_MAG">      1.00000000</i>
    <separator name="electronic mixer details" >
     <i type="int" name="IMIX">     4</i>
     <i type="logical" name="MIXFIRST"> F  </i>
     <i type="int" name="MAXMIX">   -45</i>
     <i name="WC">    100.00000000</i>
     <i type="int" name="INIMIX">     1</i>
     <i type="int" name="MIXPRE">     1</i>
     <i type="int" name="MREMOVE">     5</i>
    </separator>
   </separator>
   <separator name="electronic dipolcorrection" >
    <i type="logical" name="LDIPOL"> F  </i>
    <i type="logical" name="LMONO"> F  </i>
    <i type="int" name="IDIPOL">     0</i>
    <i name="EPSILON">      1.00000000</i>
    <v name="DIPOL">   -100.00000000   -100.00000000   -100.00000000</v>
    <i name="EFIELD">      0.00000000</i>
   </separator>
  </separator>
  <separator name="grids" >
   <i type="int" name="NGX">    18</i>
   <i type="int" name="NGY">    18</i>
   <i type="int" name="NGZ">    18</i>
   <i type="int" name="NGXF">    36</i>
   <i type="int" name="NGYF">    36</i>
   <i type="int" name="NGZF">    36</i>
   <i type="logical" name="ADDGRID"> F  </i>
  </separator>
  <separator name="ionic" >
   <i type="int" name="NSW">     0</i>
   <i type="int" name="IBRION">    -1</i>
   <i type="int" name="MDALGO">     0</i>
   <i type="int" name="ISIF">     3</i>
   <i name="PSTRESS">      0.00000000</i>
   <i name="EDIFFG">      0.00010000</i>
   <i type="int" name="NFREE">     0</i>
   <i name="POTIM">      0.50000000</i>
   <i name="SMASS">     -3.00000000</i>
   <i name="SCALEE">      1.00000000</i>
  </separator>
  <separator name="ionic md" >
   <i name="TEBEG">      0.00010000</i>
   <i name="TEEND">      0.00010000</i>
   <i type="int" name="NBLOCK">     1</i>
   <i type="int" name="KBLOCK">     1</i>
   <i type="int" name="NPACO">   256</i>
   <i name="APACO">     16.00000000</i>
  </separator>
  <separator name="symmetry" >
   <i type="int" name="ISYM">     0</i>
   <i name="SYMPREC">      0.00001000</i>
  </separator>
  <separator name="dos" >
   <i type="int" name="LORBIT">    11</i>
   <v name="RWIGS">     -1.00000000</v>
   <i type="int" name="NEDOS">   301</i>
   <i name="EMIN">     10.00000000</i>
   <i name="EMAX">    -10.00000000</i>
   <i name="EFERMI">      0.00000000</i>
  </separator>
  <separator name="writing" >
   <i type="int" name="NWRITE">     2</i>
   <i type="logical" name="LWAVE"> F  </i>
   <i type="logical" name="LDOWNSAMPLE"> F  </i>
   <i type="logical" name="LCHARG"> T  </i>
   <i type="logical" name="LPARD"> F  </i>
   <i type="logical" name="LVTOT"> F  </i>
   <i type="logical" name="LVHAR"> F  </i>
   <i type="logical" name="LELF"> F  </i>
   <i type="logical" name="LOPTICS"> F  </i>
   <v name="STM">      0.00000000      0.00000000      0.00000000      0.00000000      0.00000000      0.00000000      0.00000000</v>
  </separator>
  <separator name="performance" >
   <i type="int" name="NPAR">     1</i>
   <i type="int" name="NSIM">     4</i>
   <i type="int" name="NBLK">    -1</i>
   <i type="logical" name="LPLANE"> T  </i>
   <i type="logical" name="LSCALAPACK"> T  </i>
   <i type="logical" name="LSCAAWARE"> F  </i>
   <i type="logical" name="LSCALU"> F  </i>
   <i type="logical" name="LASYNC"> F  </i>
   <i type="logical" name="LORBITALREAL"> F  </i>
  </separator>
  <separator name="miscellaneous" >
   <i type="int" name="IDIOT">     3</i>
   <i type="int" name="ISPECIAL">     0</i>
   <i type="logical" name="LMUSIC"> F  </i>
   <v name="POMASS">     55.84700000</v>
   <v name="DARWINR">      0.00000000</v>
   <v name="DARWINV">      1.00000000</v>
   <i type="logical" name="LCORR"> T  </i>
  </separator>
  <i type="logical" name="GGA_COMPAT"> T  </i>
  <i type="logical" name="LBERRY"> F  </i>
  <i type="int" name="ICORELEVEL">     0</i>
  <i type="logical" name="LDAU"> F  </i>
  <i type="int" name="I_CONSTRAINED_M">     0</i>
  <separator name="electronic exchange-correlation" >
   <i type="string" name="GGA">--</i>
   <i type="int" name="VOSKOWN">     0</i>
   <i type="logical" name="LHFCALC"> F  </i>
   <i type="string" name="PRECFOCK"></i>
   <i type="logical" name="LSYMGRAD"> F  </i>
   <i type="logical" name="LHFONE"> F  </i>
   <i type="logical" name="LRHFCALC"> F  </i>
   <i type="logical" name="LTHOMAS"> F  </i>
   <i type="logical" name="LMODELHF"> F  </i>
   <i name="ENCUT4O">     -1.00000000</i>
   <i type="int" name="EXXOEP">     0</i>
   <i type="int" name="FOURORBIT">     0</i>
   <i name="AEXX">      0.00000000</i>
   <i name="HFALPHA">      0.00000000</i>
   <i name="MCALPHA">      0.00000000</i>
   <i name="ALDAX">      1.00000000</i>
   <i name="AGGAX">      1.00000000</i>
   <i name="ALDAC">      1.00000000</i>
   <i name="AGGAC">      1.00000000</i>
   <i type="int" name="NKREDX">     1</i>
   <i type="int" name="NKREDY">     1</i>
   <i type="int" name="NKREDZ">     1</i>
   <i type="logical" name="SHIFTRED"> F  </i>
   <i type="logical" name="ODDONLY"> F  </i>
   <i type="logical" name="EVENONLY"> F  </i>
   <i type="int" name="LMAXFOCK">     0</i>
   <i type="int" name="NMAXFOCKAE">     0</i>
   <i type="logical" name="LFOCKAEDFT"> F  </i>
   <i name="HFSCREEN">      0.00000000</i>
   <i name="HFSCREENC">      0.00000000</i>
   <i type="int" name="NBANDSGWLOW">     0</i>
  </separator>
  <separator name="vdW DFT" >
   <i type="logical" name="LUSE_VDW"> F  </i>
   <i name="Zab_VDW">     -0.84910000</i>
   <i name="PARAM1">      0.12340000</i>
   <i name="PARAM2">      1.00000000</i>
   <i name="PARAM3">      0.00000000</i>
  </separator>
  <separator name="model GW" >
   <i type="int" name="MODEL_GW">     0</i>
   <i name="MODEL_EPS0">      6.87226586</i>
   <i name="MODEL_ALPHA">      1.00000000</i>
  </separator>
  <separator name="linear response parameters" >
   <i type="logical" name="LEPSILON"> F  </i>
   <i type="logical" name="LRPA"> F  </i>
   <i type="logical" name="LNABLA"> F  </i>
   <i type="logical" name="LVEL"> F  </i>
   <i type="int" name="KINTER">     0</i>
   <i name="CSHIFT">      0.10000000</i>
   <i name="OMEGAMAX">     -1.00000000</i>
   <i name="DEG_THRESHOLD">      0.00200000</i>
   <i name="RTIME">     -0.10000000</i>
   <i name="WPLASMAI">      0.00000000</i>
   <v name="DFIELD">      0.00000000      0.00000000      0.00000000</v>
   <v name="WPLASMA">      0.00000000      0.00000000      0.00000000      0.00000000      0.00000000      0.00000000      0.00000000      0.00000000      0.00000000</v>
  </separator>
  <separator name="orbital magnetization" >
   <i type="logical" name="NUCIND"> F  </i>
   <v name="MAGPOS">      0.00000000      0.00000000      0.00000000</v>
   <i type="logical" name="LNICSALL"> T  </i>
   <i type="logical" name="ORBITALMAG"> F  </i>
   <i type="logical" name="LMAGBLOCH"> F  </i>
   <i type="logical" name="LCHIMAG"> F  </i>
   <i type="logical" name="LGAUGE"> T  </i>
   <i type="int" name="MAGATOM">     0</i>
   <v name="MAGDIPOL">      0.00000000      0.00000000      0.00000000</v>
   <v name="AVECCONST">      0.00000000      0.00000000      0.00000000</v>
  </separator>
  <separator name="response functions" >
   <i type="logical" name="LADDER"> F  </i>
   <i type="logical" name="LRPAFORCE"> F  </i>
   <i type="logical" name="LFXC"> F  </i>
   <i type="logical" name="LHARTREE"> T  </i>
   <i type="int" name="IBSE">     0</i>
   <v type="int" name="KPOINT">    -1     0     0     0</v>
   <i type="logical" name="LTCTE"> F  </i>
   <i type="logical" name="LTETE"> F  </i>
   <i type="logical" name="LTRIPLET"> F  </i>
   <i type="logical" name="LFXCEPS"> F  </i>
   <i type="logical" name="LFXHEG"> F  </i>
   <i type="int" name="NATURALO">     2</i>
   <i type="logical" name="L2ORDER"> F  </i>
   <i type="logical" name="LMP2LT"> F  </i>
   <i type="logical" name="LUSEW"> F  </i>
   <i name="ENCUTGW">     -2.00000000</i>
   <i name="ENCUTGWSOFT">     -2.00000000</i>
   <i name="ENCUTLF">     -1.00000000</i>
   <i type="int" name="LMAXMP2">    -1</i>
   <i name="SCISSOR">      0.00000000</i>
   <i type="int" name="NOMEGA">     0</i>
   <i type="int" name="NOMEGAR">     0</i>
   <i type="int" name="NBANDSGW">    -1</i>
   <i type="int" name="NBANDSO">    -1</i>
   <i type="int" name="NBANDSV">    -1</i>
   <i type="int" name="NELM">   200</i>
   <i type="int" name="NELMHF">     1</i>
   <i type="int" name="DIM">     3</i>
   <i type="int" name="ANTIRES">     0</i>
   <i name="OMEGAMAX">    -30.00000000</i>
   <i name="OMEGAMIN">    -30.00000000</i>
   <i name="OMEGATL">   -200.00000000</i>
   <i type="int" name="OMEGAGRID">   140</i>
   <i name="CSHIFT">     -0.10000000</i>
   <i type="logical" name="SELFENERGY"> F  </i>
   <i type="logical" name="LSPECTRAL"> F  </i>
   <i type="logical" name="LSPECTRALGW"> F  </i>
   <i type="logical" name="LSINGLES"> F  </i>
   <i type="logical" name="LFERMIGW"> F  </i>
   <i type="logical" name="ODDONLYGW"> F  </i>
   <i type="logical" name="EVENONLYGW"> F  </i>
   <i type="int" name="NKREDLFX">     1</i>
   <i type="int" name="NKREDLFY">     1</i>
   <i type="int" name="NKREDLFZ">     1</i>
   <i type="int" name="MAXMEM">  2800</i>
   <i type="int" name="TELESCOPE">     0</i>
   <i type="int" name="TAUPAR">     1</i>
   <i type="int" name="OMEGAPAR">    -1</i>
   <i name="LAMBDA">      1.00000000</i>
  </separator>
  <separator name="External order field" >
   <i name="OFIELD_KAPPA">      0.00000000</i>
   <v name="OFIELD_K">      0.00000000      0.00000000      0.00000000</v>
   <i name="OFIELD_Q6_NEAR">      0.00000000</i>
   <i name="OFIELD_Q6_FAR">      0.00000000</i>
   <i name="OFIELD_A">      0.00000000</i>
  </separator>
 </parameters>
 <atominfo>
  <atoms>       1 </atoms>
  <types>       1 </types>
  <array name="atoms" >
   <dimension dim="1">ion</dimension>
   <field type="string">element</field>
   <field type="int">atomtype</field>
   <set>
    <rc><c>Fe</c><c>   1</c></rc>
   </set>
  </array>
  <array name="atomtypes" >
   <dimension dim="1">type</dimension>
   <field type="int">atomspertype</field>
   <field type="string">element</field>
   <field>mass</field>
   <field>valence</field>
   <field type="string">pseudopotential</field>
   <set>
    <rc><c>   1</c><c>Fe</c><c>     55.84700000</c><c>      8.00000000</c><c>  PAW_PBE Fe 06Sep2000                  </c></rc>
   </set>
  </array>
 </atominfo>
 <structure name="initialpos" >
  <crystal>
   <varray name="basis" >
    <v>       2.31889200       0.00000000      -0.81985200 </v>
    <v>      -1.15944600       2.00822000      -0.81985200 </v>
    <v>       0.00000000       0.00000000       2.45955700 </v>
   </varray>
   <i name="volume">     11.45377644 </i>
   <varray name="rec_basis" >
    <v>       0.43124044       0.24897671      -0.00000000 </v>
    <v>      -0.00000000       0.49795341       0.00000000 </v>
    <v>       0.14374675       0.24897660       0.40657728 </v>
   </varray>
  </crystal>
  <varray name="positions" >
   <v>       0.00000000       0.00000000       0.00000000 </v>
  </varray>
 </structure>
 <calculation>
  <scstep>
   <time name="dav">    2.59    2.60</time>
   <time name="total">    2.64    2.65</time>
   <energy>
    <i name="alphaZ">     60.34147461 </i>
    <i name="ewald">   -590.45898340 </i>
    <i name="hartreedc">   -112.16278697 </i>
    <i name="XCdc">      7.21112170 </i>
    <i name="pawpsdc">    551.74770005 </i>
    <i name="pawaedc">   -559.55805187 </i>
    <i name="eentropy">     -0.00005171 </i>
    <i name="bandstr">     71.85517768 </i>
    <i name="atom">    594.31268070 </i>
    <i name="e_fr_energy">     23.28828079 </i>
    <i name="e_wo_entrp">     23.28833250 </i>
    <i name="e_0_energy">     23.28830664 </i>
   </energy>
  </scstep>
  <scstep>
   <time name="dav">    2.51    2.52</time>
   <time name="total">    2.51    2.52</time>
   <energy>
    <i name="e_fr_energy">     -7.69443857 </i>
    <i name="e_wo_entrp">     -7.69429056 </i>
    <i name="e_0_energy">     -7.69436456 </i>
   </energy>
  </scstep>
  <scstep>
   <time name="dav">    2.79    2.80</time>
   <time name="total">    2.79    2.80</time>
   <energy>
    <i name="e_fr_energy">     -8.37936907 </i>
    <i name="e_wo_entrp">     -8.37919536 </i>
    <i name="e_0_energy">     -8.37928221 </i>
   </energy>
  </scstep>
  <scstep>
   <time name="dav">    2.75    2.76</time>
   <time name="total">    2.75    2.76</time>
   <energy>
    <i name="e_fr_energy">     -8.38196853 </i>
    <i name="e_wo_entrp">     -8.38179302 </i>
    <i name="e_0_energy">     -8.38188077 </i>
   </energy>
  </scstep>
  <scstep>
   <time name="dav">    2.72    2.73</time>
   <time name="total">    2.80    2.81</time>
   <energy>
    <i name="e_fr_energy">     -8.38198558 </i>
    <i name="e_wo_entrp">     -8.38181007 </i>
    <i name="e_0_energy">     -8.38189782 </i>
   </energy>
  </scstep>
  <scstep>
   <time name="diag">    0.38    0.38</time>
   <time name="diis">    2.18    2.19</time>
   <time name="orth">    0.01    0.01</time>
   <time name="total">    2.69    2.70</time>
   <energy>
    <i name="e_fr_energy">     -8.89682187 </i>
    <i name="e_wo_entrp">     -8.89662719 </i>
    <i name="e_0_energy">     -8.89672453 </i>
   </energy>
  </scstep>
  <scstep>
   <time name="diag">    0.38    0.38</time>
   <time name="diis">    2.23    2.24</time>
   <time name="orth">    0.01    0.01</time>
   <time name="total">    2.75    2.76</time>
   <energy>
    <i name="e_fr_energy">     -8.92484134 </i>
    <i name="e_wo_entrp">     -8.92470308 </i>
    <i name="e_0_energy">     -8.92477221 </i>
   </energy>
  </scstep>
  <scstep>
   <time name="diag">    0.38    0.38</time>
   <time name="diis">    2.23    2.24</time>
   <time name="orth">    0.01    0.01</time>
   <time name="total">    2.74    2.75</time>
   <energy>
    <i name="e_fr_energy">     -8.92639511 </i>
    <i name="e_wo_entrp">     -8.92638675 </i>
    <i name="e_0_energy">     -8.92639093 </i>
   </energy>
  </scstep>
  <scstep>
   <time name="diag">    0.38    0.38</time>
   <time name="diis">    2.26    2.27</time>
   <time name="orth">    0.01    0.01</time>
   <time name="total">    2.77    2.78</time>
   <energy>
    <i name="e_fr_energy">     -8.92493588 </i>
    <i name="e_wo_entrp">     -8.92492438 </i>
    <i name="e_0_energy">     -8.92493013 </i>
   </energy>
  </scstep>
  <scstep>
   <time name="diag">    0.38    0.38</time>
   <time name="diis">    2.29    2.30</time>
   <time name="orth">    0.01    0.01</time>
   <time name="total">    2.80    2.81</time>
   <energy>
    <i name="e_fr_energy">     -8.92537025 </i>
    <i name="e_wo_entrp">     -8.92534187 </i>
    <i name="e_0_energy">     -8.92535606 </i>
   </energy>
  </scstep>
  <scstep>
   <time name="diag">    0.38    0.38</time>
   <time name="diis">    2.31    2.31</time>
   <time name="orth">    0.01    0.01</time>
   <time name="total">    2.82    2.82</time>
   <energy>
    <i name="e_fr_energy">     -8.92541369 </i>
    <i name="e_wo_entrp">     -8.92538798 </i>
    <i name="e_0_energy">     -8.92540084 </i>
   </energy>
  </scstep>
  <scstep>
   <time name="diag">    0.38    0.38</time>
   <time name="diis">    1.78    1.79</time>
   <time name="orth">    0.01    0.01</time>
   <time name="total">    2.22    2.23</time>
   <energy>
    <i name="alphaZ">     60.34147461 </i>
    <i name="ewald">   -590.45898340 </i>
    <i name="hartreedc">    -98.60461983 </i>
    <i name="XCdc">      4.85411347 </i>
    <i name="pawpsdc">    763.99225884 </i>
    <i name="pawaedc">   -773.01525469 </i>
    <i name="eentropy">     -0.00002545 </i>
    <i name="bandstr">     29.65294846 </i>
    <i name="atom">    594.31268070 </i>
    <i name="e_fr_energy">     -8.92540730 </i>
    <i name="e_wo_entrp">     -8.92538185 </i>
    <i name="e_0_energy">     -8.92539457 </i>
   </energy>
  </scstep>
  <structure>
   <crystal>
    <varray name="basis" >
     <v>       2.31889200       0.00000000      -0.81985200 </v>
     <v>      -1.15944600       2.00822000      -0.81985200 </v>
     <v>       0.00000000       0.00000000       2.45955700 </v>
    </varray>
    <i name="volume">     11.45377644 </i>
    <varray name="rec_basis" >
     <v>       0.43124044       0.24897671      -0.00000000 </v>
     <v>      -0.00000000       0.49795341       0.00000000 </v>
     <v>       0.14374675       0.24897660       0.40657728 </v>
    </varray>
   </crystal>
   <varray name="positions" >
    <v>       0.00000000       0.00000000       0.00000000 </v>
   </varray>
  </structure>
  <varray name="forces" >
   <v>       0.00000065      -0.00000085       0.00000175 </v>
  </varray>
  <varray name="stress" >
   <v>    -278.75966298     437.38106807     235.59526138 </v>
   <v>     437.38106690      -8.26235392     377.00397301 </v>
   <v>     235.59525785     377.00398365     316.09870088 </v>
  </varray>
  <energy>
   <i name="e_fr_energy">     -8.92540730 </i>
   <i name="e_wo_entrp">     -8.92539457 </i>
   <i name="e_0_energy">     -0.00002545 </i>
  </energy>
  <time name="totalsc">   36.96   37.09</time>
  <eigenvalues>
   <array>
    <dimension dim="1">band</dimension>
    <dimension dim="2">kpoint</dimension>
    <dimension dim="3">spin</dimension>
    <field>eigene</field>
    <field>occ</field>
    <set>
     <set comment="spin 1">
      <set comment="kpoint 1">
       <r>   -2.7164    1.0000 </r>
       <r>    3.3283    1.0000 </r>
       <r>    3.7012    1.0000 </r>
       <r>    3.9720    1.0000 </r>
       <r>    5.0034    1.0000 </r>
       <r>    5.1100    1.0000 </r>
       <r>   30.4864    0.0000 </r>
       <r>   30.5128    0.0000 </r>
       <r>   30.7158    0.0000 </r>
       <r>   35.6374    0.0000 </r>
       <r>   35.6950    0.0000 </r>
      </set>
      <set comment="kpoint 2">
       <r>   -2.7061    1.0000 </r>
       <r>    3.3298    1.0000 </r>
       <r>    3.7010    1.0000 </r>
       <r>    3.9731    1.0000 </r>
       <r>    5.0046    1.0000 </r>
       <r>    5.1059    1.0000 </r>
       <r>   30.4512    0.0000 </r>
       <r>   30.5038    0.0000 </r>
       <r>   30.6658    0.0000 </r>
       <r>   35.5168    0.0000 </r>
       <r>   35.7931    0.0000 </r>
      </set>
      <set comment="kpoint 3">
       <r>   -2.6753    1.0000 </r>
       <r>    3.3343    1.0000 </r>
       <r>    3.7004    1.0000 </r>
       <r>    3.9767    1.0000 </r>
       <r>    5.0077    1.0000 </r>
       <r>    5.0942    1.0000 </r>
       <r>   30.2923    0.0000 </r>
       <r>   30.4790    0.0000 </r>
       <r>   30.5813    0.0000 </r>
       <r>   35.1895    0.0000 </r>
       <r>   36.0849    0.0000 </r>
      </set>
      <set comment="kpoint 4">
       <r>   -2.6241    1.0000 </r>
       <r>    3.3417    1.0000 </r>
       <r>    3.6995    1.0000 </r>
       <r>    3.9827    1.0000 </r>
       <r>    5.0101    1.0000 </r>
       <r>    5.0776    1.0000 </r>
       <r>   29.9925    0.0000 </r>
       <r>   30.4343    0.0000 </r>
       <r>   30.5135    0.0000 </r>
       <r>   34.7426    0.0000 </r>
       <r>   36.5303    0.0000 </r>
      </set>
      <set comment="kpoint 5">
       <r>   -2.5527    1.0000 </r>
       <r>    3.3518    1.0000 </r>
       <r>    3.6985    1.0000 </r>
       <r>    3.9915    1.0000 </r>
       <r>    5.0025    1.0000 </r>
       <r>    5.0653    1.0000 </r>
       <r>   29.6135    0.0000 </r>
       <r>   30.3618    0.0000 </r>
       <r>   30.4328    0.0000 </r>
       <r>   34.2320    0.0000 </r>
       <r>   36.1640    0.0000 </r>
      </set>
      <set comment="kpoint 6">
       <r>   -2.4615    1.0000 </r>
       <r>    3.3645    1.0000 </r>
       <r>    3.6975    1.0000 </r>
       <r>    4.0035    1.0000 </r>
       <r>    4.9735    1.0000 </r>
       <r>    5.0687    1.0000 </r>
       <r>   29.1949    0.0000 </r>
       <r>   30.2519    0.0000 </r>
       <r>   30.3193    0.0000 </r>
       <r>   33.6872    0.0000 </r>
       <r>   35.7834    0.0000 </r>
      </set>
      <set comment="kpoint 7">
       <r>   -2.3508    1.0000 </r>
       <r>    3.3796    1.0000 </r>
       <r>    3.6968    1.0000 </r>
       <r>    4.0189    1.0000 </r>
       <r>    4.9280    1.0000 </r>
       <r>    5.0832    1.0000 </r>
       <r>   28.7590    0.0000 </r>
       <r>   30.0948    0.0000 </r>
       <r>   30.1601    0.0000 </r>
       <r>   33.1245    0.0000 </r>
       <r>   35.4945    0.0000 </r>
      </set>
      <set comment="kpoint 8">
       <r>   -2.2212    1.0000 </r>
       <r>    3.3967    1.0000 </r>
       <r>    3.6967    1.0000 </r>
       <r>    4.0384    1.0000 </r>
       <r>    4.8714    1.0000 </r>
       <r>    5.1034    1.0000 </r>
       <r>   28.3191    0.0000 </r>
       <r>   29.8826    0.0000 </r>
       <r>   29.9464    0.0000 </r>
       <r>   32.5538    0.0000 </r>
       <r>   35.3115    0.0000 </r>
      </set>
      <set comment="kpoint 9">
       <r>   -2.0732    1.0000 </r>
       <r>    3.4158    1.0000 </r>
       <r>    3.6975    1.0000 </r>
       <r>    4.0622    1.0000 </r>
       <r>    4.8056    1.0000 </r>
       <r>    5.1275    1.0000 </r>
       <r>   27.8833    0.0000 </r>
       <r>   29.6119    0.0000 </r>
       <r>   29.6745    0.0000 </r>
       <r>   31.9819    0.0000 </r>
       <r>   35.1634    0.0000 </r>
      </set>
      <set comment="kpoint 10">
       <r>   -1.9077    1.0000 </r>
       <r>    3.4367    1.0000 </r>
       <r>    3.6994    1.0000 </r>
       <r>    4.0907    1.0000 </r>
       <r>    4.7317    1.0000 </r>
       <r>    5.1551    1.0000 </r>
       <r>   27.4570    0.0000 </r>
       <r>   29.2847    0.0000 </r>
       <r>   29.3463    0.0000 </r>
       <r>   31.4139    0.0000 </r>
       <r>   35.1475    0.0000 </r>
      </set>
      <set comment="kpoint 11">
       <r>   -1.7255    1.0000 </r>
       <r>    3.4593    1.0000 </r>
       <r>    3.7028    1.0000 </r>
       <r>    4.1243    1.0000 </r>
       <r>    4.6504    1.0000 </r>
       <r>    5.1857    1.0000 </r>
       <r>   27.0435    0.0000 </r>
       <r>   28.9073    0.0000 </r>
       <r>   28.9680    0.0000 </r>
       <r>   30.8537    0.0000 </r>
       <r>   35.1832    0.0000 </r>
      </set>
      <set comment="kpoint 12">
       <r>   -1.5277    1.0000 </r>
       <r>    3.4837    1.0000 </r>
       <r>    3.7077    1.0000 </r>
       <r>    4.1631    1.0000 </r>
       <r>    4.5625    1.0000 </r>
       <r>    5.2195    1.0000 </r>
       <r>   26.6450    0.0000 </r>
       <r>   28.4887    0.0000 </r>
       <r>   28.5488    0.0000 </r>
       <r>   30.3049    0.0000 </r>
       <r>   35.2934    0.0000 </r>
      </set>
      <set comment="kpoint 13">
       <r>   -1.3156    1.0000 </r>
       <r>    3.5101    1.0000 </r>
       <r>    3.7141    1.0000 </r>
       <r>    4.2072    1.0000 </r>
       <r>    4.4691    1.0000 </r>
       <r>    5.2566    1.0000 </r>
       <r>   26.2628    0.0000 </r>
       <r>   28.0378    0.0000 </r>
       <r>   28.0973    0.0000 </r>
       <r>   29.7703    0.0000 </r>
       <r>   35.4646    0.0000 </r>
      </set>
      <set comment="kpoint 14">
       <r>   -1.0908    1.0000 </r>
       <r>    3.5387    1.0000 </r>
       <r>    3.7216    1.0000 </r>
       <r>    4.2563    1.0000 </r>
       <r>    4.3717    1.0000 </r>
       <r>    5.2975    1.0000 </r>
       <r>   25.8979    0.0000 </r>
       <r>   27.5627    0.0000 </r>
       <r>   27.6219    0.0000 </r>
       <r>   29.2526    0.0000 </r>
       <r>   35.6968    0.0000 </r>
      </set>
      <set comment="kpoint 15">
       <r>   -0.8550    1.0000 </r>
       <r>    3.5700    1.0000 </r>
       <r>    3.7287    1.0000 </r>
       <r>    4.2709    1.0000 </r>
       <r>    4.3122    1.0000 </r>
       <r>    5.3428    1.0000 </r>
       <r>   25.5508    0.0000 </r>
       <r>   27.0705    0.0000 </r>
       <r>   27.1293    0.0000 </r>
       <r>   28.7539    0.0000 </r>
       <r>   35.9626    0.0000 </r>
      </set>
      <set comment="kpoint 16">
       <r>   -0.6106    1.0000 </r>
       <r>    3.6042    1.0000 </r>
       <r>    3.7321    1.0000 </r>
       <r>    4.1752    1.0000 </r>
       <r>    4.3705    1.0000 </r>
       <r>    5.3936    1.0000 </r>
       <r>   25.2215    0.0000 </r>
       <r>   26.5662    0.0000 </r>
       <r>   26.6249    0.0000 </r>
       <r>   28.2763    0.0000 </r>
       <r>   36.2727    0.0000 </r>
      </set>
      <set comment="kpoint 17">
       <r>   -0.3600    1.0000 </r>
       <r>    3.6418    1.0000 </r>
       <r>    3.7237    1.0000 </r>
       <r>    4.0905    1.0000 </r>
       <r>    4.4341    1.0000 </r>
       <r>    5.4515    1.0000 </r>
       <r>   24.9100    0.0000 </r>
       <r>   26.0544    0.0000 </r>
       <r>   26.1130    0.0000 </r>
       <r>   27.8213    0.0000 </r>
       <r>   36.6164    0.0000 </r>
      </set>
      <set comment="kpoint 18">
       <r>   -0.1065    1.0000 </r>
       <r>    3.6813    1.0000 </r>
       <r>    3.6914    1.0000 </r>
       <r>    4.0326    1.0000 </r>
       <r>    4.5017    1.0000 </r>
       <r>    5.5186    1.0000 </r>
       <r>   24.6162    0.0000 </r>
       <r>   25.5383    0.0000 </r>
       <r>   25.5968    0.0000 </r>
       <r>   27.3904    0.0000 </r>
       <r>   36.9904    0.0000 </r>
      </set>
      <set comment="kpoint 19">
       <r>    0.1464    1.0000 </r>
       <r>    3.6185    1.0000 </r>
       <r>    3.7296    1.0000 </r>
       <r>    4.0129    1.0000 </r>
       <r>    4.5731    1.0000 </r>
       <r>    5.5975    1.0000 </r>
       <r>   24.3395    0.0000 </r>
       <r>   25.0205    0.0000 </r>
       <r>   25.0793    0.0000 </r>
       <r>   26.9847    0.0000 </r>
       <r>   37.3918    0.0000 </r>
      </set>
      <set comment="kpoint 20">
       <r>    0.3945    1.0000 </r>
       <r>    3.5193    1.0000 </r>
       <r>    3.7800    1.0000 </r>
       <r>    4.0250    1.0000 </r>
       <r>    4.6476    1.0000 </r>
       <r>    5.6916    1.0000 </r>
       <r>   24.0793    0.0000 </r>
       <r>   24.5033    0.0000 </r>
       <r>   24.5629    0.0000 </r>
       <r>   26.6050    0.0000 </r>
       <r>   37.8229    0.0000 </r>
      </set>
      <set comment="kpoint 21">
       <r>    0.6331    1.0000 </r>
       <r>    3.4036    1.0000 </r>
       <r>    3.8356    1.0000 </r>
       <r>    4.0575    1.0000 </r>
       <r>    4.7248    1.0000 </r>
       <r>    5.8050    1.0000 </r>
       <r>   23.8324    0.0000 </r>
       <r>   23.9886    0.0000 </r>
       <r>   24.0517    0.0000 </r>
       <r>   26.2518    0.0000 </r>
       <r>   38.2708    0.0000 </r>
      </set>
      <set comment="kpoint 22">
       <r>    0.8571    1.0000 </r>
       <r>    3.2793    1.0000 </r>
       <r>    3.8965    1.0000 </r>
       <r>    4.1034    1.0000 </r>
       <r>    4.8043    1.0000 </r>
       <r>    5.9420    1.0000 </r>
       <r>   23.4758    0.0000 </r>
       <r>   23.5179    0.0000 </r>
       <r>   23.6297    0.0000 </r>
       <r>   25.9253    0.0000 </r>
       <r>   38.7373    0.0000 </r>
      </set>
      <set comment="kpoint 23">
       <r>    1.0616    1.0000 </r>
       <r>    3.1504    1.0000 </r>
       <r>    3.9628    1.0000 </r>
       <r>    4.1595    1.0000 </r>
       <r>    4.8857    1.0000 </r>
       <r>    6.1072    1.0000 </r>
       <r>   22.9702    0.0000 </r>
       <r>   23.0227    0.0000 </r>
       <r>   23.4066    0.0000 </r>
       <r>   25.6253    0.0000 </r>
       <r>   39.2252    0.0000 </r>
      </set>
      <set comment="kpoint 24">
       <r>    1.2420    1.0000 </r>
       <r>    3.0193    1.0000 </r>
       <r>    4.0347    1.0000 </r>
       <r>    4.2243    1.0000 </r>
       <r>    4.9684    1.0000 </r>
       <r>    6.3051    0.0000 </r>
       <r>   22.4702    0.0000 </r>
       <r>   22.5242    0.0000 </r>
       <r>   23.2085    0.0000 </r>
       <r>   25.3516    0.0000 </r>
       <r>   39.7906    0.0000 </r>
      </set>
      <set comment="kpoint 25">
       <r>    1.3947    1.0000 </r>
       <r>    2.8876    1.0000 </r>
       <r>    4.1122    1.0000 </r>
       <r>    4.2968    1.0000 </r>
       <r>    5.0520    1.0000 </r>
       <r>    6.5390    0.0000 </r>
       <r>   21.9774    0.0000 </r>
       <r>   22.0318    0.0000 </r>
       <r>   23.0256    0.0000 </r>
       <r>   25.1031    0.0000 </r>
       <r>   40.0556    0.0000 </r>
      </set>
      <set comment="kpoint 26">
       <r>    1.5176    1.0000 </r>
       <r>    2.7563    1.0000 </r>
       <r>    4.1952    1.0000 </r>
       <r>    4.3766    1.0000 </r>
       <r>    5.1362    1.0000 </r>
       <r>    6.8110    0.0000 </r>
       <r>   21.4929    0.0000 </r>
       <r>   21.5475    0.0000 </r>
       <r>   22.8566    0.0000 </r>
       <r>   24.8789    0.0000 </r>
       <r>   39.1943    0.0000 </r>
      </set>
      <set comment="kpoint 27">
       <r>    1.6102    1.0000 </r>
       <r>    2.6265    1.0000 </r>
       <r>    4.2835    1.0000 </r>
       <r>    4.4632    1.0000 </r>
       <r>    5.2205    1.0000 </r>
       <r>    7.1219    0.0000 </r>
       <r>   21.0177    0.0000 </r>
       <r>   21.0723    0.0000 </r>
       <r>   22.7006    0.0000 </r>
       <r>   24.6775    0.0000 </r>
       <r>   38.2209    0.0000 </r>
      </set>
      <set comment="kpoint 28">
       <r>    1.6737    1.0000 </r>
       <r>    2.4990    1.0000 </r>
       <r>    4.3768    1.0000 </r>
       <r>    4.5562    1.0000 </r>
       <r>    5.3045    1.0000 </r>
       <r>    7.4708    0.0000 </r>
       <r>   20.5527    0.0000 </r>
       <r>   20.6073    0.0000 </r>
       <r>   22.5570    0.0000 </r>
       <r>   24.4971    0.0000 </r>
       <r>   37.2520    0.0000 </r>
      </set>
      <set comment="kpoint 29">
       <r>    1.7102    1.0000 </r>
       <r>    2.3745    1.0000 </r>
       <r>    4.4747    1.0000 </r>
       <r>    4.6551    1.0000 </r>
       <r>    5.3879    1.0000 </r>
       <r>    7.8556    0.0000 </r>
       <r>   20.0991    0.0000 </r>
       <r>   20.1536    0.0000 </r>
       <r>   22.4250    0.0000 </r>
       <r>   24.3355    0.0000 </r>
       <r>   36.2918    0.0000 </r>
      </set>
      <set comment="kpoint 30">
       <r>    1.7230    1.0000 </r>
       <r>    2.2538    1.0000 </r>
       <r>    4.5767    1.0000 </r>
       <r>    4.7594    1.0000 </r>
       <r>    5.4704    1.0000 </r>
       <r>    8.2736    0.0000 </r>
       <r>   19.6578    0.0000 </r>
       <r>   19.7122    0.0000 </r>
       <r>   22.3040    0.0000 </r>
       <r>   24.1904    0.0000 </r>
       <r>   35.3445    0.0000 </r>
      </set>
      <set comment="kpoint 31">
       <r>    1.7155    1.0000 </r>
       <r>    2.1375    1.0000 </r>
       <r>    4.6819    1.0000 </r>
       <r>    4.8684    1.0000 </r>
       <r>    5.5517    1.0000 </r>
       <r>    8.7214    0.0000 </r>
       <r>   19.2301    0.0000 </r>
       <r>   19.2844    0.0000 </r>
       <r>   22.1936    0.0000 </r>
       <r>   24.0588    0.0000 </r>
       <r>   34.4139    0.0000 </r>
      </set>
      <set comment="kpoint 32">
       <r>    1.6916    1.0000 </r>
       <r>    2.0261    1.0000 </r>
       <r>    4.7895    1.0000 </r>
       <r>    4.9813    1.0000 </r>
       <r>    5.6316    1.0000 </r>
       <r>    9.1957    0.0000 </r>
       <r>   18.8172    0.0000 </r>
       <r>   18.8713    0.0000 </r>
       <r>   22.0930    0.0000 </r>
       <r>   23.9375    0.0000 </r>
       <r>   33.5038    0.0000 </r>
      </set>
      <set comment="kpoint 33">
       <r>    1.6547    1.0000 </r>
       <r>    1.9202    1.0000 </r>
       <r>    4.8984    1.0000 </r>
       <r>    5.0973    1.0000 </r>
       <r>    5.7099    1.0000 </r>
       <r>    9.6931    0.0000 </r>
       <r>   18.4203    0.0000 </r>
       <r>   18.4743    0.0000 </r>
       <r>   22.0018    0.0000 </r>
       <r>   23.8227    0.0000 </r>
       <r>   32.6182    0.0000 </r>
      </set>
      <set comment="kpoint 34">
       <r>    1.6081    1.0000 </r>
       <r>    1.8203    1.0000 </r>
       <r>    5.0073    1.0000 </r>
       <r>    5.2152    1.0000 </r>
       <r>    5.7865    1.0000 </r>
       <r>   10.2100    0.0000 </r>
       <r>   18.0411    0.0000 </r>
       <r>   18.0948    0.0000 </r>
       <r>   21.9194    0.0000 </r>
       <r>   23.7099    0.0000 </r>
       <r>   31.7616    0.0000 </r>
      </set>
      <set comment="kpoint 35">
       <r>    1.5549    1.0000 </r>
       <r>    1.7269    1.0000 </r>
       <r>    5.1146    1.0000 </r>
       <r>    5.3338    1.0000 </r>
       <r>    5.8613    1.0000 </r>
       <r>   10.7430    0.0000 </r>
       <r>   17.6810    0.0000 </r>
       <r>   17.7345    0.0000 </r>
       <r>   21.8454    0.0000 </r>
       <r>   23.5939    0.0000 </r>
       <r>   30.9398    0.0000 </r>
      </set>
      <set comment="kpoint 36">
       <r>    1.4978    1.0000 </r>
       <r>    1.6404    1.0000 </r>
       <r>    5.2187    1.0000 </r>
       <r>    5.4517    1.0000 </r>
       <r>    5.9342    1.0000 </r>
       <r>   11.2883    0.0000 </r>
       <r>   17.3418    0.0000 </r>
       <r>   17.3951    0.0000 </r>
       <r>   21.7792    0.0000 </r>
       <r>   23.4686    0.0000 </r>
       <r>   30.1596    0.0000 </r>
      </set>
      <set comment="kpoint 37">
       <r>    1.4393    1.0000 </r>
       <r>    1.5611    1.0000 </r>
       <r>    5.3180    1.0000 </r>
       <r>    5.5673    1.0000 </r>
       <r>    6.0050    1.0000 </r>
       <r>   11.8417    0.0000 </r>
       <r>   17.0255    0.0000 </r>
       <r>   17.0785    0.0000 </r>
       <r>   21.7206    0.0000 </r>
       <r>   23.3271    0.0000 </r>
       <r>   29.4294    0.0000 </r>
      </set>
      <set comment="kpoint 38">
       <r>    1.3815    1.0000 </r>
       <r>    1.4892    1.0000 </r>
       <r>    5.4104    1.0000 </r>
       <r>    5.6788    1.0000 </r>
       <r>    6.0736    1.0000 </r>
       <r>   12.3984    0.0000 </r>
       <r>   16.7340    0.0000 </r>
       <r>   16.7867    0.0000 </r>
       <r>   21.6692    0.0000 </r>
       <r>   23.1618    0.0000 </r>
       <r>   28.7594    0.0000 </r>
      </set>
      <set comment="kpoint 39">
       <r>    1.3265    1.0000 </r>
       <r>    1.4250    1.0000 </r>
       <r>    5.4945    1.0000 </r>
       <r>    5.7842    1.0000 </r>
       <r>    6.1393    1.0000 </r>
       <r>   12.9520    0.0000 </r>
       <r>   16.4698    0.0000 </r>
       <r>   16.5220    0.0000 </r>
       <r>   21.6245    0.0000 </r>
       <r>   22.9656    0.0000 </r>
       <r>   28.1602    0.0000 </r>
      </set>
      <set comment="kpoint 40">
       <r>    1.2758    1.0000 </r>
       <r>    1.3687    1.0000 </r>
       <r>    5.5688    1.0000 </r>
       <r>    5.8816    1.0000 </r>
       <r>    6.2013    1.0000 </r>
       <r>   13.4943    0.0000 </r>
       <r>   16.2352    0.0000 </r>
       <r>   16.2869    0.0000 </r>
       <r>   21.5864    0.0000 </r>
       <r>   22.7342    0.0000 </r>
       <r>   27.6424    0.0000 </r>
      </set>
      <set comment="kpoint 41">
       <r>    1.2307    1.0000 </r>
       <r>    1.3207    1.0000 </r>
       <r>    5.6323    1.0000 </r>
       <r>    5.9687    1.0000 </r>
       <r>    6.2583    0.0001 </r>
       <r>   14.0135    0.0000 </r>
       <r>   16.0328    0.0000 </r>
       <r>   16.0842    0.0000 </r>
       <r>   21.5545    0.0000 </r>
       <r>   22.4695    0.0000 </r>
       <r>   27.2133    0.0000 </r>
      </set>
      <set comment="kpoint 42">
       <r>    1.1925    1.0000 </r>
       <r>    1.2810    1.0000 </r>
       <r>    5.6844    1.0000 </r>
       <r>    6.0436    1.0000 </r>
       <r>    6.3086    0.0000 </r>
       <r>   14.4924    0.0000 </r>
       <r>   15.8656    0.0000 </r>
       <r>   15.9175    0.0000 </r>
       <r>   21.5286    0.0000 </r>
       <r>   22.1830    0.0000 </r>
       <r>   26.8749    0.0000 </r>
      </set>
      <set comment="kpoint 43">
       <r>    1.1618    1.0000 </r>
       <r>    1.2499    1.0000 </r>
       <r>    5.7249    1.0000 </r>
       <r>    6.1042    1.0000 </r>
       <r>    6.3503    0.0000 </r>
       <r>   14.9041    0.0000 </r>
       <r>   15.7365    0.0000 </r>
       <r>   15.7941    0.0000 </r>
       <r>   21.5083    0.0000 </r>
       <r>   21.8981    0.0000 </r>
       <r>   26.6237    0.0000 </r>
      </set>
      <set comment="kpoint 44">
       <r>    1.1395    1.0000 </r>
       <r>    1.2276    1.0000 </r>
       <r>    5.7536    1.0000 </r>
       <r>    6.1489    1.0000 </r>
       <r>    6.3817    0.0000 </r>
       <r>   15.2044    0.0000 </r>
       <r>   15.6460    0.0000 </r>
       <r>   15.7332    0.0000 </r>
       <r>   21.4924    0.0000 </r>
       <r>   21.6505    0.0000 </r>
       <r>   26.4526    0.0000 </r>
      </set>
      <set comment="kpoint 45">
       <r>    1.1259    1.0000 </r>
       <r>    1.2141    1.0000 </r>
       <r>    5.7708    1.0000 </r>
       <r>    6.1762    1.0000 </r>
       <r>    6.4011    0.0000 </r>
       <r>   15.3462    0.0000 </r>
       <r>   15.5917    0.0000 </r>
       <r>   15.7540    0.0000 </r>
       <r>   21.4581    0.0000 </r>
       <r>   21.5029    0.0000 </r>
       <r>   26.3538    0.0000 </r>
      </set>
      <set comment="kpoint 46">
       <r>    1.1213    1.0000 </r>
       <r>    1.2096    1.0000 </r>
       <r>    5.7766    1.0000 </r>
       <r>    6.1854    1.0000 </r>
       <r>    6.4078    0.0000 </r>
       <r>   15.3749    0.0000 </r>
       <r>   15.5733    0.0000 </r>
       <r>   15.7836    0.0000 </r>
       <r>   21.4056    0.0000 </r>
       <r>   21.4901    0.0000 </r>
       <r>   26.3216    0.0000 </r>
      </set>
      <set comment="kpoint 47">
       <r>    1.1213    1.0000 </r>
       <r>    1.2096    1.0000 </r>
       <r>    5.7766    1.0000 </r>
       <r>    6.1854    1.0000 </r>
       <r>    6.4078    0.0000 </r>
       <r>   15.3749    0.0000 </r>
       <r>   15.5733    0.0000 </r>
       <r>   15.7836    0.0000 </r>
       <r>   21.4056    0.0000 </r>
       <r>   21.4901    0.0000 </r>
       <r>   26.3216    0.0000 </r>
      </set>
      <set comment="kpoint 48">
       <r>    1.1257    1.0000 </r>
       <r>    1.2143    1.0000 </r>
       <r>    5.7767    1.0000 </r>
       <r>    6.1764    1.0000 </r>
       <r>    6.3949    0.0000 </r>
       <r>   15.3429    0.0000 </r>
       <r>   15.5876    0.0000 </r>
       <r>   15.7627    0.0000 </r>
       <r>   21.4492    0.0000 </r>
       <r>   21.5101    0.0000 </r>
       <r>   26.3537    0.0000 </r>
      </set>
      <set comment="kpoint 49">
       <r>    1.1391    1.0000 </r>
       <r>    1.2283    1.0000 </r>
       <r>    5.7771    1.0000 </r>
       <r>    6.1495    1.0000 </r>
       <r>    6.3569    0.0000 </r>
       <r>   15.2423    0.0000 </r>
       <r>   15.6323    0.0000 </r>
       <r>   15.7069    0.0000 </r>
       <r>   21.5448    0.0000 </r>
       <r>   21.6002    0.0000 </r>
       <r>   26.4502    0.0000 </r>
      </set>
      <set comment="kpoint 50">
       <r>    1.1613    1.0000 </r>
       <r>    1.2514    1.0000 </r>
       <r>    5.7772    1.0000 </r>
       <r>    6.1057    1.0000 </r>
       <r>    6.2949    0.0000 </r>
       <r>   15.0766    0.0000 </r>
       <r>   15.5905    0.0000 </r>
       <r>   15.7421    0.0000 </r>
       <r>   21.6290    0.0000 </r>
       <r>   21.8097    0.0000 </r>
       <r>   26.6111    0.0000 </r>
      </set>
      <set comment="kpoint 51">
       <r>    1.1924    1.0000 </r>
       <r>    1.2833    1.0000 </r>
       <r>    5.7756    1.0000 </r>
       <r>    6.0467    1.0000 </r>
       <r>    6.2107    0.9990 </r>
       <r>   14.8576    0.0000 </r>
       <r>   15.4655    0.0000 </r>
       <r>   15.8701    0.0000 </r>
       <r>   21.7277    0.0000 </r>
       <r>   22.0942    0.0000 </r>
       <r>   26.8361    0.0000 </r>
      </set>
      <set comment="kpoint 52">
       <r>    1.2323    1.0000 </r>
       <r>    1.3235    1.0000 </r>
       <r>    5.7682    1.0000 </r>
       <r>    5.9775    1.0000 </r>
       <r>    6.1070    1.0000 </r>
       <r>   14.5973    0.0000 </r>
       <r>   15.3174    0.0000 </r>
       <r>   16.0355    0.0000 </r>
       <r>   21.8371    0.0000 </r>
       <r>   22.4385    0.0000 </r>
       <r>   27.1243    0.0000 </r>
      </set>
      <set comment="kpoint 53">
       <r>    1.2810    1.0000 </r>
       <r>    1.3712    1.0000 </r>
       <r>    5.7429    1.0000 </r>
       <r>    5.9109    1.0000 </r>
       <r>    5.9869    1.0000 </r>
       <r>   14.3061    0.0000 </r>
       <r>   15.1561    0.0000 </r>
       <r>   16.2334    0.0000 </r>
       <r>   21.9509    0.0000 </r>
       <r>   22.8323    0.0000 </r>
       <r>   27.4731    0.0000 </r>
      </set>
      <set comment="kpoint 54">
       <r>    1.3384    1.0000 </r>
       <r>    1.4257    1.0000 </r>
       <r>    5.6773    1.0000 </r>
       <r>    5.8476    1.0000 </r>
       <r>    5.8762    1.0000 </r>
       <r>   13.9920    0.0000 </r>
       <r>   14.9887    0.0000 </r>
       <r>   16.4608    0.0000 </r>
       <r>   22.0640    0.0000 </r>
       <r>   23.2679    0.0000 </r>
       <r>   27.8794    0.0000 </r>
      </set>
      <set comment="kpoint 55">
       <r>    1.4045    1.0000 </r>
       <r>    1.4860    1.0000 </r>
       <r>    5.5716    1.0000 </r>
       <r>    5.7063    1.0000 </r>
       <r>    5.8609    1.0000 </r>
       <r>   13.6616    0.0000 </r>
       <r>   14.8210    0.0000 </r>
       <r>   16.7148    0.0000 </r>
       <r>   22.1734    0.0000 </r>
       <r>   23.7390    0.0000 </r>
       <r>   28.3383    0.0000 </r>
      </set>
      <set comment="kpoint 56">
       <r>    1.4789    1.0000 </r>
       <r>    1.5508    1.0000 </r>
       <r>    5.4420    1.0000 </r>
       <r>    5.5559    1.0000 </r>
       <r>    5.8609    1.0000 </r>
       <r>   13.3196    0.0000 </r>
       <r>   14.6574    0.0000 </r>
       <r>   16.9929    0.0000 </r>
       <r>   22.2777    0.0000 </r>
       <r>   24.2412    0.0000 </r>
       <r>   28.8446    0.0000 </r>
      </set>
      <set comment="kpoint 57">
       <r>    1.5610    1.0000 </r>
       <r>    1.6193    1.0000 </r>
       <r>    5.2969    1.0000 </r>
       <r>    5.4032    1.0000 </r>
       <r>    5.8664    1.0000 </r>
       <r>   12.9696    0.0000 </r>
       <r>   14.5009    0.0000 </r>
       <r>   17.2927    0.0000 </r>
       <r>   22.3765    0.0000 </r>
       <r>   24.7711    0.0000 </r>
       <r>   29.3922    0.0000 </r>
      </set>
      <set comment="kpoint 58">
       <r>    1.6478    1.0000 </r>
       <r>    1.6922    1.0000 </r>
       <r>    5.1407    1.0000 </r>
       <r>    5.2520    1.0000 </r>
       <r>    5.8746    1.0000 </r>
       <r>   12.6145    0.0000 </r>
       <r>   14.3537    0.0000 </r>
       <r>   17.6121    0.0000 </r>
       <r>   22.4705    0.0000 </r>
       <r>   25.3263    0.0000 </r>
       <r>   29.9748    0.0000 </r>
      </set>
      <set comment="kpoint 59">
       <r>    1.7293    1.0000 </r>
       <r>    1.7772    1.0000 </r>
       <r>    4.9768    1.0000 </r>
       <r>    5.1056    1.0000 </r>
       <r>    5.8845    1.0000 </r>
       <r>   12.2563    0.0000 </r>
       <r>   14.2172    0.0000 </r>
       <r>   17.9492    0.0000 </r>
       <r>   22.5604    0.0000 </r>
       <r>   25.9050    0.0000 </r>
       <r>   30.5858    0.0000 </r>
      </set>
      <set comment="kpoint 60">
       <r>    1.7959    1.0000 </r>
       <r>    1.8810    1.0000 </r>
       <r>    4.8089    1.0000 </r>
       <r>    4.9670    1.0000 </r>
       <r>    5.8955    1.0000 </r>
       <r>   11.8968    0.0000 </r>
       <r>   14.0921    0.0000 </r>
       <r>   18.3023    0.0000 </r>
       <r>   22.6472    0.0000 </r>
       <r>   26.5058    0.0000 </r>
       <r>   31.2177    0.0000 </r>
      </set>
      <set comment="kpoint 61">
       <r>    1.8501    1.0000 </r>
       <r>    1.9980    1.0000 </r>
       <r>    4.6398    1.0000 </r>
       <r>    4.8394    1.0000 </r>
       <r>    5.9072    1.0000 </r>
       <r>   11.5371    0.0000 </r>
       <r>   13.9787    0.0000 </r>
       <r>   18.6698    0.0000 </r>
       <r>   22.7319    0.0000 </r>
       <r>   27.1278    0.0000 </r>
       <r>   31.8623    0.0000 </r>
      </set>
      <set comment="kpoint 62">
       <r>    1.8915    1.0000 </r>
       <r>    2.1251    1.0000 </r>
       <r>    4.4719    1.0000 </r>
       <r>    4.7269    1.0000 </r>
       <r>    5.9195    1.0000 </r>
       <r>   11.1783    0.0000 </r>
       <r>   13.8766    0.0000 </r>
       <r>   19.0505    0.0000 </r>
       <r>   22.8155    0.0000 </r>
       <r>   27.7702    0.0000 </r>
       <r>   32.5089    0.0000 </r>
      </set>
      <set comment="kpoint 63">
       <r>    1.9177    1.0000 </r>
       <r>    2.2614    1.0000 </r>
       <r>    4.3069    1.0000 </r>
       <r>    4.6332    1.0000 </r>
       <r>    5.9320    1.0000 </r>
       <r>   10.8213    0.0000 </r>
       <r>   13.7855    0.0000 </r>
       <r>   19.4431    0.0000 </r>
       <r>   22.8987    0.0000 </r>
       <r>   28.4325    0.0000 </r>
       <r>   33.1432    0.0000 </r>
      </set>
      <set comment="kpoint 64">
       <r>    1.9264    1.0000 </r>
       <r>    2.4065    1.0000 </r>
       <r>    4.1464    1.0000 </r>
       <r>    4.5615    1.0000 </r>
       <r>    5.9447    1.0000 </r>
       <r>   10.4668    0.0000 </r>
       <r>   13.7049    0.0000 </r>
       <r>   19.8466    0.0000 </r>
       <r>   22.9821    0.0000 </r>
       <r>   29.1141    0.0000 </r>
       <r>   33.7440    0.0000 </r>
      </set>
      <set comment="kpoint 65">
       <r>    1.9163    1.0000 </r>
       <r>    2.5604    1.0000 </r>
       <r>    3.9916    1.0000 </r>
       <r>    4.5138    1.0000 </r>
       <r>    5.9574    1.0000 </r>
       <r>   10.1153    0.0000 </r>
       <r>   13.6339    0.0000 </r>
       <r>   20.2599    0.0000 </r>
       <r>   23.0663    0.0000 </r>
       <r>   29.8148    0.0000 </r>
       <r>   34.2794    0.0000 </r>
      </set>
      <set comment="kpoint 66">
       <r>    1.8876    1.0000 </r>
       <r>    2.7227    1.0000 </r>
       <r>    3.8435    1.0000 </r>
       <r>    4.4902    1.0000 </r>
       <r>    5.9699    1.0000 </r>
       <r>    9.7675    0.0000 </r>
       <r>   13.5720    0.0000 </r>
       <r>   20.6821    0.0000 </r>
       <r>   23.1513    0.0000 </r>
       <r>   30.5339    0.0000 </r>
       <r>   34.7037    0.0000 </r>
      </set>
      <set comment="kpoint 67">
       <r>    1.8422    1.0000 </r>
       <r>    2.8934    1.0000 </r>
       <r>    3.7033    1.0000 </r>
       <r>    4.4890    1.0000 </r>
       <r>    5.9821    1.0000 </r>
       <r>    9.4238    0.0000 </r>
       <r>   13.5182    0.0000 </r>
       <r>   21.1122    0.0000 </r>
       <r>   23.2374    0.0000 </r>
       <r>   31.2711    0.0000 </r>
       <r>   34.9528    0.0000 </r>
      </set>
      <set comment="kpoint 68">
       <r>    1.7833    1.0000 </r>
       <r>    3.0722    1.0000 </r>
       <r>    3.5717    1.0000 </r>
       <r>    4.5071    1.0000 </r>
       <r>    5.9939    1.0000 </r>
       <r>    9.0847    0.0000 </r>
       <r>   13.4719    0.0000 </r>
       <r>   21.5492    0.0000 </r>
       <r>   23.3242    0.0000 </r>
       <r>   32.0258    0.0000 </r>
       <r>   34.3507    0.0000 </r>
      </set>
      <set comment="kpoint 69">
       <r>    1.7149    1.0000 </r>
       <r>    3.2581    1.0000 </r>
       <r>    3.4504    1.0000 </r>
       <r>    4.5403    1.0000 </r>
       <r>    6.0051    1.0000 </r>
       <r>    8.7506    0.0000 </r>
       <r>   13.4323    0.0000 </r>
       <r>   21.9918    0.0000 </r>
       <r>   23.4112    0.0000 </r>
       <r>   32.7971    0.0000 </r>
       <r>   33.7295    0.0000 </r>
      </set>
      <set comment="kpoint 70">
       <r>    1.6410    1.0000 </r>
       <r>    3.3327    1.0000 </r>
       <r>    3.4581    1.0000 </r>
       <r>    4.5844    1.0000 </r>
       <r>    6.0156    1.0000 </r>
       <r>    8.4222    0.0000 </r>
       <r>   13.3987    0.0000 </r>
       <r>   22.4387    0.0000 </r>
       <r>   23.4979    0.0000 </r>
       <r>   33.1202    0.0000 </r>
       <r>   33.5854    0.0000 </r>
      </set>
      <set comment="kpoint 71">
       <r>    1.5657    1.0000 </r>
       <r>    3.2327    1.0000 </r>
       <r>    3.6582    1.0000 </r>
       <r>    4.6350    1.0000 </r>
       <r>    6.0253    1.0000 </r>
       <r>    8.0998    0.0000 </r>
       <r>   13.3705    0.0000 </r>
       <r>   22.8879    0.0000 </r>
       <r>   23.5831    0.0000 </r>
       <r>   32.5273    0.0000 </r>
       <r>   34.3864    0.0000 </r>
      </set>
      <set comment="kpoint 72">
       <r>    1.4922    1.0000 </r>
       <r>    3.1418    1.0000 </r>
       <r>    3.8670    1.0000 </r>
       <r>    4.6884    1.0000 </r>
       <r>    6.0341    1.0000 </r>
       <r>    7.7843    0.0000 </r>
       <r>   13.3470    0.0000 </r>
       <r>   23.3367    0.0000 </r>
       <r>   23.6655    0.0000 </r>
       <r>   31.9510    0.0000 </r>
       <r>   34.1259    0.0000 </r>
      </set>
      <set comment="kpoint 73">
       <r>    1.4235    1.0000 </r>
       <r>    3.0621    1.0000 </r>
       <r>    4.0822    1.0000 </r>
       <r>    4.7410    1.0000 </r>
       <r>    6.0420    1.0000 </r>
       <r>    7.4764    0.0000 </r>
       <r>   13.3278    0.0000 </r>
       <r>   23.7407    0.0000 </r>
       <r>   23.7840    0.0000 </r>
       <r>   31.3957    0.0000 </r>
       <r>   33.8311    0.0000 </r>
      </set>
      <set comment="kpoint 74">
       <r>    1.3619    1.0000 </r>
       <r>    2.9940    1.0000 </r>
       <r>    4.3024    1.0000 </r>
       <r>    4.7903    1.0000 </r>
       <r>    6.0488    1.0000 </r>
       <r>    7.1777    0.0000 </r>
       <r>   13.3124    0.0000 </r>
       <r>   23.8137    0.0000 </r>
       <r>   24.2170    0.0000 </r>
       <r>   30.8676    0.0000 </r>
       <r>   33.5600    0.0000 </r>
      </set>
      <set comment="kpoint 75">
       <r>    1.3092    1.0000 </r>
       <r>    2.9379    1.0000 </r>
       <r>    4.5253    1.0000 </r>
       <r>    4.8337    1.0000 </r>
       <r>    6.0544    1.0000 </r>
       <r>    6.8903    0.0000 </r>
       <r>   13.3004    0.0000 </r>
       <r>   23.8762    0.0000 </r>
       <r>   24.6322    0.0000 </r>
       <r>   30.3758    0.0000 </r>
       <r>   33.3244    0.0000 </r>
      </set>
      <set comment="kpoint 76">
       <r>    1.2668    1.0000 </r>
       <r>    2.8940    1.0000 </r>
       <r>    4.7461    1.0000 </r>
       <r>    4.8697    1.0000 </r>
       <r>    6.0589    1.0000 </r>
       <r>    6.6189    0.0000 </r>
       <r>   13.2914    0.0000 </r>
       <r>   23.9277    0.0000 </r>
       <r>   25.0124    0.0000 </r>
       <r>   29.9361    0.0000 </r>
       <r>   33.1330    0.0000 </r>
      </set>
      <set comment="kpoint 77">
       <r>    1.2358    1.0000 </r>
       <r>    2.8626    1.0000 </r>
       <r>    4.8939    1.0000 </r>
       <r>    4.9576    1.0000 </r>
       <r>    6.0622    1.0000 </r>
       <r>    6.3737    0.0000 </r>
       <r>   13.2851    0.0000 </r>
       <r>   23.9662    0.0000 </r>
       <r>   25.3319    0.0000 </r>
       <r>   29.5741    0.0000 </r>
       <r>   32.9919    0.0000 </r>
      </set>
      <set comment="kpoint 78">
       <r>    1.2170    1.0000 </r>
       <r>    2.8436    1.0000 </r>
       <r>    4.9112    1.0000 </r>
       <r>    5.1275    1.0000 </r>
       <r>    6.0646    1.0000 </r>
       <r>    6.1808    1.0000 </r>
       <r>   13.2815    0.0000 </r>
       <r>   23.9901    0.0000 </r>
       <r>   25.5530    0.0000 </r>
       <r>   29.3275    0.0000 </r>
       <r>   32.9055    0.0000 </r>
      </set>
      <set comment="kpoint 79">
       <r>    1.2106    1.0000 </r>
       <r>    2.8373    1.0000 </r>
       <r>    4.9168    1.0000 </r>
       <r>    5.2004    1.0000 </r>
       <r>    6.0669    1.0000 </r>
       <r>    6.0989    1.0000 </r>
       <r>   13.2803    0.0000 </r>
       <r>   23.9982    0.0000 </r>
       <r>   25.6334    0.0000 </r>
       <r>   29.2386    0.0000 </r>
       <r>   32.8765    0.0000 </r>
      </set>
      <set comment="kpoint 80">
       <r>    1.2106    1.0000 </r>
       <r>    2.8373    1.0000 </r>
       <r>    4.9168    1.0000 </r>
       <r>    5.2004    1.0000 </r>
       <r>    6.0669    1.0000 </r>
       <r>    6.0989    1.0000 </r>
       <r>   13.2803    0.0000 </r>
       <r>   23.9982    0.0000 </r>
       <r>   25.6334    0.0000 </r>
       <r>   29.2386    0.0000 </r>
       <r>   32.8765    0.0000 </r>
      </set>
      <set comment="kpoint 81">
       <r>    1.2097    1.0000 </r>
       <r>    2.8398    1.0000 </r>
       <r>    4.9145    1.0000 </r>
       <r>    5.1997    1.0000 </r>
       <r>    6.0500    1.0000 </r>
       <r>    6.0695    1.0000 </r>
       <r>   13.3383    0.0000 </r>
       <r>   24.0105    0.0000 </r>
       <r>   25.6511    0.0000 </r>
       <r>   29.2403    0.0000 </r>
       <r>   32.8746    0.0000 </r>
      </set>
      <set comment="kpoint 82">
       <r>    1.2065    1.0000 </r>
       <r>    2.8473    1.0000 </r>
       <r>    4.9074    1.0000 </r>
       <r>    5.1974    1.0000 </r>
       <r>    5.9458    1.0000 </r>
       <r>    6.0394    1.0000 </r>
       <r>   13.5082    0.0000 </r>
       <r>   24.0473    0.0000 </r>
       <r>   25.7043    0.0000 </r>
       <r>   29.2452    0.0000 </r>
       <r>   32.8691    0.0000 </r>
      </set>
      <set comment="kpoint 83">
       <r>    1.2001    1.0000 </r>
       <r>    2.8598    1.0000 </r>
       <r>    4.8950    1.0000 </r>
       <r>    5.1936    1.0000 </r>
       <r>    5.7760    1.0000 </r>
       <r>    5.9998    1.0000 </r>
       <r>   13.7792    0.0000 </r>
       <r>   24.1086    0.0000 </r>
       <r>   25.7925    0.0000 </r>
       <r>   29.2535    0.0000 </r>
       <r>   32.8606    0.0000 </r>
      </set>
      <set comment="kpoint 84">
       <r>    1.1886    1.0000 </r>
       <r>    2.8771    1.0000 </r>
       <r>    4.8756    1.0000 </r>
       <r>    5.1885    1.0000 </r>
       <r>    5.5637    1.0000 </r>
       <r>    5.9460    1.0000 </r>
       <r>   14.1368    0.0000 </r>
       <r>   24.1941    0.0000 </r>
       <r>   25.9150    0.0000 </r>
       <r>   29.2651    0.0000 </r>
       <r>   32.8497    0.0000 </r>
      </set>
      <set comment="kpoint 85">
       <r>    1.1697    1.0000 </r>
       <r>    2.8991    1.0000 </r>
       <r>    4.8440    1.0000 </r>
       <r>    5.1819    1.0000 </r>
       <r>    5.3315    1.0000 </r>
       <r>    5.8786    1.0000 </r>
       <r>   14.5662    0.0000 </r>
       <r>   24.3035    0.0000 </r>
       <r>   26.0709    0.0000 </r>
       <r>   29.2800    0.0000 </r>
       <r>   32.8376    0.0000 </r>
      </set>
      <set comment="kpoint 86">
       <r>    1.1398    1.0000 </r>
       <r>    2.9257    1.0000 </r>
       <r>    4.7825    1.0000 </r>
       <r>    5.1129    1.0000 </r>
       <r>    5.1748    1.0000 </r>
       <r>    5.7985    1.0000 </r>
       <r>   15.0544    0.0000 </r>
       <r>   24.4364    0.0000 </r>
[...]
       </set>
       <set comment="band 4">
        <r>  0.0018  0.0000  0.0007  0.0001  0.3403  0.3314  0.0153  0.2472  0.0501 </r>
       </set>
       <set comment="band 5">
        <r>  0.0052  0.0007  0.0003  0.0003  0.2163  0.0375  0.0486  0.3216  0.3547 </r>
       </set>
       <set comment="band 6">
        <r>  0.0000  0.0636  0.1738  0.0207  0.0986  0.0545  0.4184  0.0155  0.0373 </r>
       </set>
       <set comment="band 7">
        <r>  0.3450  0.0339  0.0216  0.0110  0.0624  0.1906  0.1333  0.0647  0.0212 </r>
       </set>
       <set comment="band 8">
        <r>  0.0000  0.0760  0.0000  0.2250  0.0659  0.0334  0.0000  0.1000  0.1998 </r>
       </set>
       <set comment="band 9">
        <r>  0.3212  0.1916  0.1287  0.0653  0.0011  0.0477  0.0156  0.0162  0.0004 </r>
       </set>
       <set comment="band 10">
        <r>  0.0000  0.0004  0.0000  0.0011  0.0792  0.0399  0.0000  0.1156  0.2367 </r>
       </set>
       <set comment="band 11">
        <r>  0.0512  0.0749  0.0525  0.0258  0.2098  0.2845  0.0030  0.0973  0.0673 </r>
       </set>
      </set>
      <set comment="kpoint 205">
       <set comment="band 1">
        <r>  0.1051  0.0318  0.0239  0.0104  0.0424  0.3473  0.1852  0.1105  0.0134 </r>
       </set>
       <set comment="band 2">
        <r>  0.0000  0.0102  0.0001  0.0265  0.1678  0.0697  0.0002  0.2158  0.4484 </r>
       </set>
       <set comment="band 3">
        <r>  0.0001  0.1009  0.2642  0.0359  0.0661  0.0315  0.2581  0.0170  0.0258 </r>
       </set>
       <set comment="band 4">
        <r>  0.0041  0.0001  0.0008  0.0001  0.4657  0.3542  0.0320  0.1238  0.0050 </r>
       </set>
       <set comment="band 5">
        <r>  0.0042  0.0006  0.0001  0.0002  0.0987  0.0015  0.0371  0.4412  0.4019 </r>
       </set>
       <set comment="band 6">
        <r>  0.0000  0.0597  0.1629  0.0194  0.1021  0.0569  0.4340  0.0159  0.0391 </r>
       </set>
       <set comment="band 7">
        <r>  0.3550  0.0276  0.0176  0.0089  0.0596  0.1992  0.1340  0.0677  0.0202 </r>
       </set>
       <set comment="band 8">
        <r>  0.0000  0.0744  0.0000  0.2198  0.0636  0.0322  0.0000  0.0963  0.1926 </r>
       </set>
       <set comment="band 9">
        <r>  0.2885  0.2066  0.1388  0.0704  0.0005  0.0505  0.0145  0.0171  0.0002 </r>
       </set>
       <set comment="band 10">
        <r>  0.0000  0.0006  0.0000  0.0018  0.0876  0.0441  0.0000  0.1281  0.2618 </r>
       </set>
       <set comment="band 11">
        <r>  0.0618  0.0758  0.0554  0.0261  0.1927  0.3054  0.0014  0.1040  0.0618 </r>
       </set>
      </set>
      <set comment="kpoint 206">
       <set comment="band 1">
        <r>  0.1160  0.0269  0.0201  0.0089  0.0373  0.3542  0.1793  0.1135  0.0120 </r>
       </set>
       <set comment="band 2">
        <r>  0.0000  0.0085  0.0001  0.0219  0.1694  0.0707  0.0001  0.2178  0.4533 </r>
       </set>
       <set comment="band 3">
        <r>  0.0000  0.1072  0.2819  0.0377  0.0604  0.0285  0.2361  0.0153  0.0230 </r>
       </set>
       <set comment="band 4">
        <r>  0.0073  0.0002  0.0008  0.0002  0.5593  0.3247  0.0543  0.0241  0.0136 </r>
       </set>
       <set comment="band 5">
        <r>  0.0022  0.0004  0.0000  0.0001  0.0118  0.0192  0.0196  0.5379  0.3950 </r>
       </set>
       <set comment="band 6">
        <r>  0.0000  0.0553  0.1507  0.0180  0.1058  0.0596  0.4515  0.0163  0.0412 </r>
       </set>
       <set comment="band 7">
        <r>  0.3631  0.0221  0.0141  0.0071  0.0572  0.2072  0.1348  0.0705  0.0195 </r>
       </set>
       <set comment="band 8">
        <r>  0.0000  0.0728  0.0000  0.2147  0.0608  0.0307  0.0000  0.0917  0.1837 </r>
       </set>
       <set comment="band 9">
        <r>  0.2570  0.2214  0.1488  0.0755  0.0001  0.0524  0.0133  0.0178  0.0001 </r>
       </set>
       <set comment="band 10">
        <r>  0.0000  0.0009  0.0000  0.0026  0.0964  0.0485  0.0000  0.1410  0.2879 </r>
       </set>
       <set comment="band 11">
        <r>  0.0737  0.0776  0.0546  0.0267  0.1789  0.3211  0.0003  0.1090  0.0575 </r>
       </set>
      </set>
      <set comment="kpoint 207">
       <set comment="band 1">
        <r>  0.1262  0.0223  0.0165  0.0074  0.0331  0.3602  0.1741  0.1160  0.0109 </r>
       </set>
       <set comment="band 2">
        <r>  0.0000  0.0069  0.0001  0.0177  0.1709  0.0715  0.0001  0.2197  0.4580 </r>
       </set>
       <set comment="band 3">
        <r>  0.0000  0.1139  0.3004  0.0396  0.0543  0.0254  0.2125  0.0137  0.0203 </r>
       </set>
       <set comment="band 4">
        <r>  0.0098  0.0002  0.0007  0.0002  0.5755  0.2727  0.0684  0.0004  0.0556 </r>
       </set>
       <set comment="band 5">
        <r>  0.0010  0.0003  0.0001  0.0000  0.0012  0.0610  0.0096  0.5591  0.3542 </r>
       </set>
       <set comment="band 6">
        <r>  0.0000  0.0503  0.1370  0.0164  0.1099  0.0627  0.4709  0.0167  0.0435 </r>
       </set>
       <set comment="band 7">
        <r>  0.3696  0.0174  0.0111  0.0056  0.0553  0.2145  0.1357  0.0730  0.0188 </r>
       </set>
       <set comment="band 8">
        <r>  0.0000  0.0712  0.0000  0.2096  0.0572  0.0289  0.0000  0.0862  0.1728 </r>
       </set>
       <set comment="band 9">
        <r>  0.2264  0.2361  0.1588  0.0805  0.0000  0.0534  0.0120  0.0182  0.0000 </r>
       </set>
       <set comment="band 10">
        <r>  0.0000  0.0012  0.0000  0.0034  0.1055  0.0530  0.0000  0.1546  0.3151 </r>
       </set>
       <set comment="band 11">
        <r>  0.0869  0.0771  0.0538  0.0265  0.1650  0.3347  0.0000  0.1133  0.0532 </r>
       </set>
      </set>
      <set comment="kpoint 208">
       <set comment="band 1">
        <r>  0.1357  0.0179  0.0132  0.0060  0.0295  0.3653  0.1696  0.1182  0.0099 </r>
       </set>
       <set comment="band 2">
        <r>  0.0000  0.0055  0.0001  0.0140  0.1723  0.0722  0.0001  0.2214  0.4622 </r>
       </set>
       <set comment="band 3">
        <r>  0.0000  0.1210  0.3200  0.0417  0.0478  0.0222  0.1872  0.0120  0.0175 </r>
       </set>
       <set comment="band 4">
        <r>  0.0114  0.0002  0.0005  0.0002  0.5691  0.2346  0.0760  0.0024  0.0882 </r>
       </set>
       <set comment="band 5">
        <r>  0.0005  0.0002  0.0001  0.0000  0.0125  0.0901  0.0057  0.5552  0.3223 </r>
       </set>
       <set comment="band 6">
        <r>  0.0000  0.0448  0.1219  0.0146  0.1144  0.0661  0.4923  0.0171  0.0461 </r>
       </set>
       <set comment="band 7">
        <r>  0.3748  0.0134  0.0085  0.0043  0.0536  0.2210  0.1365  0.0753  0.0183 </r>
       </set>
       <set comment="band 8">
        <r>  0.0000  0.0698  0.0000  0.2049  0.0529  0.0267  0.0000  0.0795  0.1595 </r>
       </set>
       <set comment="band 9">
        <r>  0.1964  0.2510  0.1689  0.0857  0.0001  0.0532  0.0106  0.0182  0.0000 </r>
       </set>
       <set comment="band 10">
        <r>  0.0000  0.0014  0.0000  0.0043  0.1151  0.0577  0.0000  0.1688  0.3437 </r>
       </set>
       <set comment="band 11">
        <r>  0.1015  0.0749  0.0519  0.0257  0.1524  0.3465  0.0003  0.1170  0.0492 </r>
       </set>
      </set>
      <set comment="kpoint 209">
       <set comment="band 1">
        <r>  0.1442  0.0140  0.0102  0.0046  0.0266  0.3698  0.1657  0.1200  0.0090 </r>
       </set>
       <set comment="band 2">
        <r>  0.0000  0.0042  0.0000  0.0107  0.1735  0.0728  0.0000  0.2230  0.4660 </r>
       </set>
       <set comment="band 3">
        <r>  0.0000  0.1285  0.3406  0.0439  0.0410  0.0188  0.1601  0.0102  0.0147 </r>
       </set>
       <set comment="band 4">
        <r>  0.0128  0.0002  0.0004  0.0001  0.5618  0.2094  0.0808  0.0074  0.1093 </r>
       </set>
       <set comment="band 5">
        <r>  0.0003  0.0002  0.0002  0.0000  0.0241  0.1072  0.0041  0.5490  0.3015 </r>
       </set>
       <set comment="band 6">
        <r>  0.0000  0.0387  0.1052  0.0126  0.1192  0.0699  0.5158  0.0175  0.0490 </r>
       </set>
       <set comment="band 7">
        <r>  0.3790  0.0100  0.0064  0.0032  0.0522  0.2268  0.1372  0.0772  0.0178 </r>
       </set>
       <set comment="band 8">
        <r>  0.0000  0.0685  0.0000  0.2006  0.0476  0.0240  0.0000  0.0714  0.1434 </r>
       </set>
       <set comment="band 9">
        <r>  0.1668  0.2665  0.1794  0.0910  0.0003  0.0515  0.0092  0.0176  0.0001 </r>
       </set>
       <set comment="band 10">
        <r>  0.0000  0.0016  0.0000  0.0049  0.1251  0.0627  0.0000  0.1838  0.3737 </r>
       </set>
       <set comment="band 11">
        <r>  0.1178  0.0706  0.0487  0.0242  0.1411  0.3574  0.0010  0.1205  0.0457 </r>
       </set>
      </set>
      <set comment="kpoint 210">
       <set comment="band 1">
        <r>  0.1517  0.0104  0.0076  0.0035  0.0242  0.3735  0.1624  0.1215  0.0083 </r>
       </set>
       <set comment="band 2">
        <r>  0.0000  0.0031  0.0000  0.0079  0.1745  0.0733  0.0000  0.2244  0.4693 </r>
       </set>
       <set comment="band 3">
        <r>  0.0000  0.1363  0.3621  0.0463  0.0337  0.0153  0.1315  0.0084  0.0119 </r>
       </set>
       <set comment="band 4">
        <r>  0.0139  0.0001  0.0003  0.0001  0.5566  0.1923  0.0841  0.0113  0.1230 </r>
       </set>
       <set comment="band 5">
        <r>  0.0002  0.0002  0.0002  0.0000  0.0331  0.1174  0.0035  0.5443  0.2876 </r>
       </set>
       <set comment="band 6">
        <r>  0.0000  0.0321  0.0871  0.0105  0.1243  0.0742  0.5412  0.0178  0.0523 </r>
       </set>
       <set comment="band 7">
        <r>  0.3822  0.0072  0.0046  0.0023  0.0511  0.2318  0.1379  0.0790  0.0175 </r>
       </set>
       <set comment="band 8">
        <r>  0.0000  0.0674  0.0000  0.1970  0.0413  0.0209  0.0000  0.0619  0.1243 </r>
       </set>
       <set comment="band 9">
        <r>  0.1372  0.2827  0.1904  0.0966  0.0006  0.0479  0.0076  0.0164  0.0001 </r>
       </set>
       <set comment="band 10">
        <r>  0.0000  0.0017  0.0000  0.0053  0.1358  0.0679  0.0000  0.1997  0.4054 </r>
       </set>
       <set comment="band 11">
        <r>  0.1358  0.0641  0.0440  0.0220  0.1312  0.3683  0.0020  0.1239  0.0426 </r>
       </set>
      </set>
      <set comment="kpoint 211">
       <set comment="band 1">
        <r>  0.1581  0.0073  0.0053  0.0024  0.0223  0.3766  0.1597  0.1227  0.0077 </r>
       </set>
       <set comment="band 2">
        <r>  0.0000  0.0021  0.0000  0.0055  0.1754  0.0737  0.0000  0.2256  0.4722 </r>
       </set>
       <set comment="band 3">
        <r>  0.0000  0.1444  0.3841  0.0488  0.0262  0.0118  0.1020  0.0065  0.0091 </r>
       </set>
       <set comment="band 4">
        <r>  0.0148  0.0001  0.0002  0.0001  0.5533  0.1802  0.0865  0.0140  0.1322 </r>
       </set>
       <set comment="band 5">
        <r>  0.0002  0.0001  0.0002  0.0000  0.0400  0.1233  0.0033  0.5414  0.2779 </r>
       </set>
       <set comment="band 6">
        <r>  0.0000  0.0251  0.0680  0.0082  0.1296  0.0787  0.5681  0.0181  0.0558 </r>
       </set>
       <set comment="band 7">
        <r>  0.3848  0.0049  0.0032  0.0016  0.0502  0.2360  0.1385  0.0804  0.0172 </r>
       </set>
       <set comment="band 8">
        <r>  0.0000  0.0666  0.0000  0.1942  0.0339  0.0171  0.0000  0.0507  0.1020 </r>
       </set>
       <set comment="band 9">
        <r>  0.1077  0.3000  0.2021  0.1026  0.0009  0.0421  0.0061  0.0145  0.0002 </r>
       </set>
       <set comment="band 10">
        <r>  0.0000  0.0017  0.0000  0.0052  0.1469  0.0734  0.0000  0.2163  0.4386 </r>
       </set>
       <set comment="band 11">
        <r>  0.1556  0.0550  0.0376  0.0188  0.1229  0.3798  0.0033  0.1275  0.0401 </r>
       </set>
      </set>
      <set comment="kpoint 212">
       <set comment="band 1">
        <r>  0.1634  0.0047  0.0034  0.0016  0.0208  0.3790  0.1575  0.1236  0.0072 </r>
       </set>
       <set comment="band 2">
        <r>  0.0000  0.0014  0.0000  0.0035  0.1761  0.0740  0.0000  0.2266  0.4745 </r>
       </set>
       <set comment="band 3">
        <r>  0.0000  0.1524  0.4059  0.0513  0.0187  0.0083  0.0725  0.0046  0.0064 </r>
       </set>
       <set comment="band 4">
        <r>  0.0156  0.0001  0.0002  0.0000  0.5514  0.1715  0.0882  0.0157  0.1385 </r>
       </set>
       <set comment="band 5">
        <r>  0.0001  0.0001  0.0002  0.0000  0.0452  0.1266  0.0035  0.5399  0.2707 </r>
       </set>
       <set comment="band 6">
        <r>  0.0000  0.0179  0.0486  0.0059  0.1348  0.0835  0.5953  0.0183  0.0595 </r>
       </set>
       <set comment="band 7">
        <r>  0.3867  0.0031  0.0020  0.0010  0.0495  0.2395  0.1390  0.0816  0.0170 </r>
       </set>
       <set comment="band 8">
        <r>  0.0000  0.0662  0.0000  0.1924  0.0256  0.0129  0.0000  0.0382  0.0769 </r>
       </set>
       <set comment="band 9">
        <r>  0.0783  0.3183  0.2146  0.1090  0.0010  0.0339  0.0044  0.0117  0.0002 </r>
       </set>
       <set comment="band 10">
        <r>  0.0000  0.0015  0.0000  0.0046  0.1585  0.0790  0.0000  0.2335  0.4729 </r>
       </set>
       <set comment="band 11">
        <r>  0.1771  0.0433  0.0296  0.0148  0.1161  0.3924  0.0047  0.1315  0.0380 </r>
       </set>
      </set>
      <set comment="kpoint 213">
       <set comment="band 1">
        <r>  0.1676  0.0027  0.0019  0.0009  0.0197  0.3809  0.1558  0.1244  0.0069 </r>
       </set>
       <set comment="band 2">
        <r>  0.0000  0.0008  0.0000  0.0020  0.1767  0.0743  0.0000  0.2274  0.4764 </r>
       </set>
       <set comment="band 3">
        <r>  0.0000  0.1599  0.4263  0.0537  0.0116  0.0051  0.0448  0.0029  0.0039 </r>
       </set>
       <set comment="band 4">
        <r>  0.0162  0.0000  0.0001  0.0000  0.5503  0.1654  0.0894  0.0168  0.1428 </r>
       </set>
       <set comment="band 5">
        <r>  0.0001  0.0001  0.0002  0.0000  0.0493  0.1282  0.0039  0.5394  0.2653 </r>
       </set>
       <set comment="band 6">
        <r>  0.0000  0.0111  0.0301  0.0036  0.1396  0.0882  0.6211  0.0183  0.0632 </r>
       </set>
       <set comment="band 7">
        <r>  0.3882  0.0017  0.0011  0.0006  0.0490  0.2422  0.1395  0.0826  0.0168 </r>
       </set>
       <set comment="band 8">
        <r>  0.0000  0.0661  0.0000  0.1916  0.0168  0.0085  0.0000  0.0250  0.0504 </r>
       </set>
       <set comment="band 9">
        <r>  0.0500  0.3371  0.2274  0.1155  0.0009  0.0236  0.0028  0.0082  0.0002 </r>
       </set>
       <set comment="band 10">
        <r>  0.0000  0.0011  0.0000  0.0034  0.1699  0.0845  0.0000  0.2505  0.5066 </r>
       </set>
       <set comment="band 11">
        <r>  0.1994  0.0296  0.0202  0.0101  0.1111  0.4059  0.0062  0.1357  0.0365 </r>
       </set>
      </set>
      <set comment="kpoint 214">
       <set comment="band 1">
        <r>  0.1706  0.0012  0.0009  0.0004  0.0190  0.3822  0.1546  0.1249  0.0066 </r>
       </set>
       <set comment="band 2">
        <r>  0.0000  0.0003  0.0000  0.0009  0.1771  0.0745  0.0000  0.2280  0.4777 </r>
       </set>
       <set comment="band 3">
        <r>  0.0000  0.1662  0.4433  0.0557  0.0055  0.0024  0.0214  0.0014  0.0018 </r>
       </set>
       <set comment="band 4">
        <r>  0.0167  0.0000  0.0000  0.0000  0.5499  0.1612  0.0901  0.0174  0.1456 </r>
       </set>
       <set comment="band 5">
        <r>  0.0001  0.0000  0.0001  0.0000  0.0522  0.1287  0.0043  0.5395  0.2613 </r>
       </set>
       <set comment="band 6">
        <r>  0.0000  0.0053  0.0145  0.0017  0.1435  0.0924  0.6430  0.0183  0.0664 </r>
       </set>
       <set comment="band 7">
        <r>  0.3891  0.0008  0.0005  0.0002  0.0486  0.2441  0.1398  0.0832  0.0167 </r>
       </set>
       <set comment="band 8">
        <r>  0.0000  0.0662  0.0000  0.1916  0.0085  0.0043  0.0000  0.0126  0.0254 </r>
       </set>
       <set comment="band 9">
        <r>  0.0249  0.3548  0.2395  0.1217  0.0006  0.0126  0.0014  0.0044  0.0001 </r>
       </set>
       <set comment="band 10">
        <r>  0.0000  0.0006  0.0000  0.0019  0.1801  0.0893  0.0000  0.2657  0.5368 </r>
       </set>
       <set comment="band 11">
        <r>  0.2201  0.0155  0.0106  0.0053  0.1077  0.4193  0.0075  0.1400  0.0356 </r>
       </set>
      </set>
      <set comment="kpoint 215">
       <set comment="band 1">
        <r>  0.1725  0.0003  0.0002  0.0001  0.0185  0.3830  0.1539  0.1252  0.0065 </r>
       </set>
       <set comment="band 2">
        <r>  0.0000  0.0001  0.0000  0.0002  0.1773  0.0746  0.0000  0.2283  0.4785 </r>
       </set>
       <set comment="band 3">
        <r>  0.0000  0.1705  0.4549  0.0570  0.0015  0.0006  0.0056  0.0004  0.0005 </r>
       </set>
       <set comment="band 4">
        <r>  0.0170  0.0000  0.0000  0.0000  0.5497  0.1589  0.0904  0.0177  0.1472 </r>
       </set>
       <set comment="band 5">
        <r>  0.0001  0.0000  0.0000  0.0000  0.0541  0.1287  0.0047  0.5398  0.2589 </r>
       </set>
       <set comment="band 6">
        <r>  0.0000  0.0014  0.0038  0.0005  0.1462  0.0952  0.6579  0.0182  0.0687 </r>
       </set>
       <set comment="band 7">
        <r>  0.3897  0.0002  0.0001  0.0001  0.0484  0.2453  0.1399  0.0836  0.0166 </r>
       </set>
       <set comment="band 8">
        <r>  0.0000  0.0665  0.0000  0.1921  0.0023  0.0012  0.0000  0.0034  0.0069 </r>
       </set>
       <set comment="band 9">
        <r>  0.0067  0.3681  0.2485  0.1264  0.0002  0.0036  0.0004  0.0013  0.0000 </r>
       </set>
       <set comment="band 10">
        <r>  0.0000  0.0002  0.0000  0.0006  0.1874  0.0928  0.0000  0.2767  0.5584 </r>
       </set>
       <set comment="band 11">
        <r>  0.2357  0.0044  0.0030  0.0015  0.1059  0.4298  0.0085  0.1433  0.0351 </r>
       </set>
      </set>
      <set comment="kpoint 216">
       <set comment="band 1">
        <r>  0.1731  0.0000  0.0000  0.0000  0.0183  0.3833  0.1536  0.1253  0.0065 </r>
       </set>
       <set comment="band 2">
        <r>  0.0000  0.0000  0.0000  0.0000  0.1774  0.0746  0.0000  0.2284  0.4788 </r>
       </set>
       <set comment="band 3">
        <r>  0.0000  0.1720  0.4590  0.0575  0.0000  0.0000  0.0000  0.0000  0.0000 </r>
       </set>
       <set comment="band 4">
        <r>  0.0170  0.0000  0.0000  0.0000  0.5497  0.1581  0.0905  0.0178  0.1477 </r>
       </set>
       <set comment="band 5">
        <r>  0.0001  0.0000  0.0000  0.0000  0.0547  0.1287  0.0049  0.5400  0.2580 </r>
       </set>
       <set comment="band 6">
        <r>  0.0000  0.0000  0.0000  0.0000  0.1471  0.0962  0.6632  0.0182  0.0695 </r>
       </set>
       <set comment="band 7">
        <r>  0.3899  0.0000  0.0000  0.0000  0.0483  0.2456  0.1400  0.0838  0.0166 </r>
       </set>
       <set comment="band 8">
        <r>  0.0000  0.0666  0.0000  0.1923  0.0000  0.0000  0.0000  0.0000  0.0000 </r>
       </set>
       <set comment="band 9">
        <r>  0.0000  0.3732  0.2520  0.1282  0.0000  0.0000  0.0000  0.0000  0.0000 </r>
       </set>
       <set comment="band 10">
        <r>  0.0000  0.0000  0.0000  0.0000  0.1901  0.0941  0.0000  0.2807  0.5664 </r>
       </set>
       <set comment="band 11">
        <r>  0.2415  0.0000  0.0000  0.0000  0.1053  0.4339  0.0089  0.1446  0.0349 </r>
       </set>
      </set>
     </set>
    </set>
   </array>
  </projected>
 </calculation>
 <structure name="finalpos" >
  <crystal>
   <varray name="basis" >
    <v>       2.31889200       0.00000000      -0.81985200 </v>
    <v>      -1.15944600       2.00822000      -0.81985200 </v>
    <v>       0.00000000       0.00000000       2.45955700 </v>
   </varray>
   <i name="volume">     11.45377644 </i>
   <varray name="rec_basis" >
    <v>       0.43124044       0.24897671      -0.00000000 </v>
    <v>      -0.00000000       0.49795341       0.00000000 </v>
    <v>       0.14374675       0.24897660       0.40657728 </v>
   </varray>
  </crystal>
  <varray name="positions" >
   <v>       0.00000000       0.00000000       0.00000000 </v>
  </varray>
 </structure>
</modeling>
