 vasp.5.4.4.18Apr17-6-g9f103f2a35 (build Feb  5 2022 00:56:52) complex           
 executed on             LinuxGNU date 2022.02.08  03:19:48
 running on   21 total cores
 each image running on    3 cores
 distrk:  each k-point on    3 cores,    1 groups
 distr:  one band on NCORES_PER_BAND=   3 cores,    1 groups


--------------------------------------------------------------------------------------------------------


 INCAR:
 POTCAR:    PAW_PBE Y_sv 25May2007                
 POTCAR:    PAW_PBE C 08Apr2002                   
 POTCAR:    PAW_PBE I 08Apr2002                   
 POTCAR:    PAW_PBE Y_sv 25May2007                
   VRHFIN =Y: 4s4p5s4d                                                          
   LEXCH  = PE                                                                  
   EATOM  =  1046.9140 eV,   76.9460 Ry                                         
                                                                                
   TITEL  = PAW_PBE Y_sv 25May2007                                              
   LULTRA =        F    use ultrasoft PP ?                                      
   IUNSCR =        1    unscreen: 0-lin 1-nonlin 2-no                           
   RPACOR =    2.200    partial core radius                                     
   POMASS =   88.906; ZVAL   =   11.000    mass and valenz                      
   RCORE  =    2.800    outmost cutoff radius                                   
   RWIGS  =    3.430; RWIGS  =    1.815    wigner-seitz radius (au A)           
   ENMAX  =  202.626; ENMIN  =  151.970 eV                                      
   RCLOC  =    2.212    cutoff for local pot                                    
   LCOR   =        T    correct aug charges                                     
   LPAW   =        T    paw PP                                                  
   EAUG   =  470.889                                                            
   DEXC   =    0.000                                                            
   RMAX   =    2.863    core radius for proj-oper                               
   RAUG   =    1.300    factor for augmentation sphere                          
   RDEP   =    2.926    radius for radial grids                                 
   RDEPT  =    2.280    core radius for aug-charge                              
                                                                                
   Atomic configuration                                                         
   11 entries                                                                   
     n  l   j            E        occ.                                          
     1  0  0.50    -16863.0720   2.0000                                         
     2  0  0.50     -2309.2881   2.0000                                         
     2  1  1.50     -2055.5536   6.0000                                         
     3  0  0.50      -367.1837   2.0000                                         
     3  1  1.50      -284.8912   6.0000                                         
     3  2  2.50      -149.4324  10.0000                                         
     4  0  0.50       -46.3345   2.0000                                         
     5  0  0.50        -3.6387   1.0000                                         
     4  1  1.50       -26.3769   6.0000                                         
     4  2  2.50        -1.6291   2.0000                                         
     4  3  2.50        -1.3606   0.0000                                         
   Description                                                                  
     l       E           TYP  RCUT    TYP  RCUT                                 
     0    -46.3344714     23  2.600                                             
     0     -3.6387002     23  2.700                                             
     1    -26.3769044     23  2.600                                             
     1    -27.7374870     23  2.600                                             
     2     -1.6291019     23  2.600                                             
     2      0.1354037     23  2.600                                             
     3     -1.3605826     23  2.800                                             
  local pseudopotential read in
  partial core-charges read in
  partial kinetic energy density read in
  atomic valenz-charges read in
  non local Contribution for L=           0  read in
    real space projection operators read in
  non local Contribution for L=           0  read in
    real space projection operators read in
  non local Contribution for L=           1  read in
    real space projection operators read in
  non local Contribution for L=           1  read in
    real space projection operators read in
  non local Contribution for L=           2  read in
    real space projection operators read in
  non local Contribution for L=           2  read in
    real space projection operators read in
  non local Contribution for L=           3  read in
    real space projection operators read in
    PAW grid and wavefunctions read in

   number of l-projection  operators is LMAX  =           7
   number of lm-projection operators is LMMAX =          25

 POTCAR:    PAW_PBE C 08Apr2002                   
   VRHFIN =C: s2p2                                                              
   LEXCH  = PE                                                                  
   EATOM  =   147.1560 eV,   10.8157 Ry                                         
                                                                                
   TITEL  = PAW_PBE C 08Apr2002                                                 
   LULTRA =        F    use ultrasoft PP ?                                      
   IUNSCR =        1    unscreen: 0-lin 1-nonlin 2-no                           
   RPACOR =    1.200    partial core radius                                     
   POMASS =   12.011; ZVAL   =    4.000    mass and valenz                      
   RCORE  =    1.500    outmost cutoff radius                                   
   RWIGS  =    1.630; RWIGS  =    0.863    wigner-seitz radius (au A)           
   ENMAX  =  400.000; ENMIN  =  300.000 eV                                      
   ICORE  =        2    local potential                                         
   LCOR   =        T    correct aug charges                                     
   LPAW   =        T    paw PP                                                  
   EAUG   =  644.873                                                            
   DEXC   =    0.000                                                            
   RMAX   =    1.529    core radius for proj-oper                               
   RAUG   =    1.300    factor for augmentation sphere                          
   RDEP   =    1.501    radius for radial grids                                 
   RDEPT  =    1.300    core radius for aug-charge                              
                                                                                
   Atomic configuration                                                         
    4 entries                                                                   
     n  l   j            E        occ.                                          
     1  0  0.50      -273.3789   2.0000                                         
     2  0  0.50       -13.7508   2.0000                                         
     2  1  0.50        -5.2854   2.0000                                         
     3  2  1.50        -5.4423   0.0000                                         
   Description                                                                  
     l       E           TYP  RCUT    TYP  RCUT                                 
     0    -13.7508458     23  1.200                                             
     0     -8.2022199     23  1.200                                             
     1     -5.2854383     23  1.500                                             
     1     34.0145650     23  1.500                                             
     2     -5.4423304      7  1.500                                             
  local pseudopotential read in
  partial core-charges read in
  partial kinetic energy density read in
  atomic valenz-charges read in
  non local Contribution for L=           0  read in
    real space projection operators read in
  non local Contribution for L=           0  read in
    real space projection operators read in
  non local Contribution for L=           1  read in
    real space projection operators read in
  non local Contribution for L=           1  read in
    real space projection operators read in
    PAW grid and wavefunctions read in

   number of l-projection  operators is LMAX  =           4
   number of lm-projection operators is LMMAX =           8

 POTCAR:    PAW_PBE I 08Apr2002                   
   VRHFIN =I : s2p5                                                             
   LEXCH  = PE                                                                  
   EATOM  =   315.8678 eV,   23.2156 Ry                                         
                                                                                
   TITEL  = PAW_PBE I 08Apr2002                                                 
   LULTRA =        F    use ultrasoft PP ?                                      
   IUNSCR =        1    unscreen: 0-lin 1-nonlin 2-no                           
   RPACOR =    2.200    partial core radius                                     
   POMASS =  126.904; ZVAL   =    7.000    mass and valenz                      
   RCORE  =    2.300    outmost cutoff radius                                   
   RWIGS  =    2.810; RWIGS  =    1.487    wigner-seitz radius (au A)           
   ENMAX  =  175.647; ENMIN  =  131.735 eV                                      
   ICORE  =        3    local potential                                         
   LCOR   =        T    correct aug charges                                     
   LPAW   =        T    paw PP                                                  
   EAUG   =  370.139                                                            
   DEXC   =    0.000                                                            
   RMAX   =    2.359    core radius for proj-oper                               
   RAUG   =    1.300    factor for augmentation sphere                          
   RDEP   =    2.392    radius for radial grids                                 
   RDEPT  =    2.170    core radius for aug-charge                              
                                                                                
   Atomic configuration                                                         
   13 entries                                                                   
     n  l   j            E        occ.                                          
     1  0  0.50    -32976.3739   2.0000                                         
     2  0  0.50     -5094.5933   2.0000                                         
     2  1  1.50     -4572.0131   6.0000                                         
     3  0  0.50     -1028.2813   2.0000                                         
     3  1  1.50      -859.0250   6.0000                                         
     3  2  2.50      -605.7620  10.0000                                         
     4  0  0.50      -180.5540   2.0000                                         
     4  1  1.50      -127.5306   6.0000                                         
     4  2  2.50       -50.2720  10.0000                                         
     5  0  0.50       -17.4058   2.0000                                         
     5  1  0.50        -7.0851   5.0000                                         
     5  2  1.50        -7.0750   0.0000                                         
     4  3  2.50        -7.0750   0.0000                                         
   Description                                                                  
     l       E           TYP  RCUT    TYP  RCUT                                 
     0    -17.4058016     23  2.300                                             
     0    -18.7663842     23  2.300                                             
     1     -7.0850686     23  2.300                                             
     1     -4.2150896     23  2.300                                             
     2     -7.0750295     23  2.300                                             
     3     -1.3605826     23  2.300                                             
  local pseudopotential read in
  partial core-charges read in
  partial kinetic energy density read in
  atomic valenz-charges read in
  non local Contribution for L=           0  read in
    real space projection operators read in
  non local Contribution for L=           0  read in
    real space projection operators read in
  non local Contribution for L=           1  read in
    real space projection operators read in
  non local Contribution for L=           1  read in
    real space projection operators read in
  non local Contribution for L=           2  read in
    real space projection operators read in
    PAW grid and wavefunctions read in

   number of l-projection  operators is LMAX  =           5
   number of lm-projection operators is LMMAX =          13

 Optimization of the real space projectors (new method)

 maximal supplied QI-value         = 13.42
 optimisation between [QCUT,QGAM] = [ 11.67, 23.35] = [ 38.16,152.62] Ry 
 Optimized for a Real-space Cutoff    1.68 Angstroem

   l    n(q)    QCUT    max X(q) W(low)/X(q) W(high)/X(q)  e(spline) 
   0     12    11.673    14.902    0.22E-04    0.24E-05    0.52E-07
   0     12    11.673     9.294    0.34E-04    0.58E-05    0.89E-07
   1     11    11.673    69.520    0.10E-04    0.47E-04    0.49E-06
   1     11    11.673    72.085    0.10E-04    0.48E-04    0.50E-06
   2     11    11.673    62.934    0.94E-04    0.14E-04    0.82E-06
   2     11    11.673    49.749    0.91E-04    0.13E-04    0.79E-06
   3     10    11.673     8.311    0.92E-04    0.21E-04    0.59E-06
 Optimization of the real space projectors (new method)

 maximal supplied QI-value         = 25.13
 optimisation between [QCUT,QGAM] = [ 11.56, 23.12] = [ 37.43,149.72] Ry 
 Optimized for a Real-space Cutoff    1.04 Angstroem

   l    n(q)    QCUT    max X(q) W(low)/X(q) W(high)/X(q)  e(spline) 
   0      7    11.561   115.676    0.20E-03    0.60E-03    0.21E-06
   0      7    11.561    87.132    0.20E-03    0.59E-03    0.21E-06
   1      7    11.561     4.429    0.23E-03    0.35E-03    0.15E-06
   1      7    11.561     2.733    0.18E-03    0.25E-03    0.12E-06
 Optimization of the real space projectors (new method)

 maximal supplied QI-value         = 16.25
 optimisation between [QCUT,QGAM] = [ 11.54, 23.24] = [ 37.28,151.24] Ry 
 Optimized for a Real-space Cutoff    1.40 Angstroem

   l    n(q)    QCUT    max X(q) W(low)/X(q) W(high)/X(q)  e(spline) 
   0     10    11.539   194.483    0.48E-04    0.89E-04    0.13E-06
   0     10    11.539   190.334    0.47E-04    0.86E-04    0.12E-06
   1      9    11.539   116.687    0.15E-03    0.73E-04    0.13E-06
   1      9    11.539    88.696    0.15E-03    0.72E-04    0.13E-06
   2      9    11.539     4.877    0.99E-05    0.58E-04    0.56E-07
  PAW_PBE Y_sv 25May2007                :
 energy of atom  1       EATOM=-1046.9140
 kinetic energy error for atom=    0.0008 (will be added to EATOM!!)
  PAW_PBE C 08Apr2002                   :
 energy of atom  2       EATOM= -147.1560
 kinetic energy error for atom=    0.0071 (will be added to EATOM!!)
  PAW_PBE I 08Apr2002                   :
 energy of atom  3       EATOM= -315.8678
 kinetic energy error for atom=    0.0009 (will be added to EATOM!!)


 POSCAR: Y8 C4 I7                                
  positions in direct lattice
  No initial velocities read in
 exchange correlation table for  LEXCH =        8
   RHO(1)=    0.500       N(1)  =     2000
   RHO(2)=  100.500       N(2)  =     4000

 VTST: version 3.2, (02/03/18)

 CHAIN: initializing optimizer
 
 OPT: Using VASP QUASI-newton optimizer
 CHAIN: Read ICHAIN            0
 CHAIN: Running the NEB
 NEB:          SPRING     -5.000000
 NEB:          LCLIMB      T
 NEB:     LTANGENTOLD      F
 NEB:           LDNEB      F
 NEB:        LDNEBORG      F
 NEB:        LNEBCELL      F
 NEB:          EFIRST      0.000000
 NEB:           ELAST      0.000000

 POSCAR: Y8 C4 I7                                
  positions in direct lattice
  No initial velocities read in

 POSCAR: Y8 C4 I7                                
  positions in direct lattice
  No initial velocities read in



--------------------------------------------------------------------------------------------------------


 ion  position               nearest neighbor table
   1  0.998  0.334  0.119-  12 2.59   9 2.60  11 2.61  13 3.10  16 3.11  14 3.13   5 3.36   8 3.48
                             6 3.53   2 3.83   4 3.87   3 3.87   4 3.88   3 3.90   2 3.94
   2  0.505  0.338  0.118-  11 2.61  10 2.62  12 2.64  15 3.09  14 3.10  13 3.12   5 3.36   6 3.39
                             7 3.39   1 3.83   4 3.83   3 3.88   4 3.90   1 3.94   3 3.95
   3  0.247  0.831  0.121-  11 2.61  10 2.65   9 2.68  13 3.07  16 3.08  15 3.10   5 3.25   8 3.41
                             7 3.42   4 3.86   1 3.87   2 3.88   1 3.90   4 3.91   2 3.95
   4  0.750  0.832  0.120-  10 2.59   9 2.59  12 2.66  15 3.08  16 3.08  14 3.14   7 3.37   8 3.41
                             6 3.50   2 3.83   3 3.86   1 3.87   1 3.88   2 3.90   3 3.91
   5  0.251  0.150  0.901-  10 2.47   9 2.48  11 2.59  17 2.87   3 3.25  18 3.28   1 3.36   2 3.36
                             8 3.74   7 3.77   6 3.77   6 4.02   7 4.02   8 4.05
   6  0.735  0.170  0.880-  10 2.53  12 2.54   9 2.63  19 3.06   2 3.39   4 3.50   1 3.53   5 3.77
                             7 3.81   7 3.83   8 3.90   8 3.98   5 4.02
   7  0.503  0.672  0.890-  10 2.53  12 2.57  11 2.60  18 3.09  19 3.14   4 3.37   2 3.39   3 3.42
                             5 3.77   6 3.81   6 3.83   8 3.86   8 3.91  17 3.91   5 4.02
   8  1.000  0.677  0.885-   9 2.52  12 2.53  11 2.61  18 3.10  19 3.24   4 3.41   3 3.41   1 3.48
                             5 3.74   7 3.86  17 3.87   6 3.90   7 3.91   6 3.98   5 4.05
   9  0.992  0.003  0.997-   5 2.48   8 2.52   4 2.59   1 2.60   6 2.63   3 2.68
  10  0.503  0.000  0.001-   5 2.47   6 2.53   7 2.53   4 2.59   2 2.62   3 2.65
  11  0.249  0.498  1.000-   5 2.59   7 2.60   1 2.61   8 2.61   3 2.61   2 2.61
  12  0.757  0.498  0.992-   8 2.53   6 2.54   7 2.57   1 2.59   2 2.64   4 2.66
  13  0.251  0.165  0.309-   3 3.07   1 3.10   2 3.12
  14  0.746  0.169  0.315-   2 3.10   1 3.13   4 3.14
  15  0.502  0.668  0.312-   4 3.08   2 3.09   3 3.10
  16  0.998  0.668  0.313-   3 3.08   4 3.08   1 3.11
  17  0.247  0.332  0.667-   5 2.87  18 3.24  18 3.50   8 3.87   7 3.91
  18  0.256  0.812  0.688-   7 3.09   8 3.10  17 3.24   5 3.28  17 3.50
  19  0.736  0.849  0.685-   6 3.06   7 3.14   8 3.24


IMPORTANT INFORMATION: All symmetrisations will be switched off!
NOSYMM: (Re-)initialisation of all symmetry stuff for point group C_1.




Automatic generation of k-mesh.
 generate k-points for:    2    2    2
Space group operators:
 irot       det(A)        alpha          n_x          n_y          n_z        tau_x        tau_y        tau_z
    1     1.000000     0.000000     1.000000     0.000000     0.000000     0.000000     0.000000     0.000000
 
 Subroutine IBZKPT returns following result:
 ===========================================
 
 Found      8 irreducible k-points:
 
 Following reciprocal coordinates:
            Coordinates               Weight
  0.000000  0.000000  0.000000      1.000000
  0.500000  0.000000  0.000000      1.000000
  0.000000  0.500000  0.000000      1.000000
  0.500000  0.500000  0.000000      1.000000
  0.000000  0.000000  0.500000      1.000000
  0.500000  0.000000  0.500000      1.000000
  0.000000  0.500000  0.500000      1.000000
  0.500000  0.500000  0.500000      1.000000
 
 Following cartesian coordinates:
            Coordinates               Weight
  0.000000  0.000000  0.000000      1.000000
  0.064345 -0.000000  0.000000      1.000000
 -0.000000  0.074299  0.000000      1.000000
  0.064345  0.074299  0.000000      1.000000
  0.000000  0.000000  0.045047      1.000000
  0.064345 -0.000000  0.045047      1.000000
 -0.000000  0.074299  0.045047      1.000000
  0.064345  0.074299  0.045047      1.000000
 


--------------------------------------------------------------------------------------------------------




 Dimension of arrays:
   k-points           NKPTS =      8   k-points in BZ     NKDIM =      8   number of bands    NBANDS=     97
   number of dos      NEDOS =    301   number of ions     NIONS =     19
   non local maximal  LDIM  =      7   non local SUM 2l+1 LMDIM =     25
   total plane-waves  NPLWV = 252000
   max r-space proj   IRMAX =   8612   max aug-charges    IRDMAX=  31495
   dimension x,y,z NGX =    60 NGY =   50 NGZ =   84
   dimension x,y,z NGXF=   120 NGYF=  100 NGZF=  168
   support grid    NGXF=   120 NGYF=  100 NGZF=  168
   ions per type =               8   4   7
   NGX,Y,Z   is equivalent  to a cutoff of  12.84, 12.35, 12.58 a.u.
   NGXF,Y,Z  is equivalent  to a cutoff of  25.67, 24.70, 25.16 a.u.

 SYSTEM =  unknown system                          
 POSCAR =  Y8 C4 I7                                

 Startparameter for this run:
   NWRITE =      2    write-flag & timer
   PREC   = accura    normal or accurate (medium, high low for compatibility)
   ISTART =      0    job   : 0-new  1-cont  2-samecut
   ICHARG =      1    charge: 1-file 2-atom 10-const
   ISPIN  =      2    spin polarized calculation?
   LNONCOLLINEAR =      F non collinear calculations
   LSORBIT =      F    spin-orbit coupling
   INIWAV =      1    electr: 0-lowe 1-rand  2-diag
   LASPH  =      F    aspherical Exc in radial PAW
   METAGGA=      F    non-selfconsistent MetaGGA calc.

 Electronic Relaxation 1
   ENCUT  =  520.0 eV  38.22 Ry    6.18 a.u.  14.45 12.51 20.64*2*pi/ulx,y,z
   ENINI  =  520.0     initial cutoff
   ENAUG  =  644.9 eV  augmentation charge cutoff
   NELM   =    200;   NELMIN=  4; NELMDL= -5     # of ELM steps 
   EDIFF  = 0.1E-04   stopping-criterion for ELM
   LREAL  =      T    real-space projection
   NLSPLINE    = F    spline interpolate recip. space projectors
   LCOMPAT=      F    compatible to vasp.4.4
   GGA_COMPAT  = T    GGA compatible to vasp.4.4-vasp.4.6
   LMAXPAW     = -100 max onsite density
   LMAXMIX     =    2 max onsite mixed and CHGCAR
   VOSKOWN=      0    Vosko Wilk Nusair interpolation
   ROPT   =   -0.00025  -0.00025  -0.00025
 Ionic relaxation
   EDIFFG = -.2E-01   stopping-criterion for IOM
   NSW    =     99    number of steps for IOM
   NBLOCK =      1;   KBLOCK =     99    inner block; outer block 
   IBRION =      1    ionic relax: 0-MD 1-quasi-New 2-CG
   NFREE  =      0    steps in history (QN), initial steepest desc. (CG)
   ISIF   =      2    stress and relaxation
   IWAVPR =     11    prediction:  0-non 1-charg 2-wave 3-comb
   ISYM   =      0    0-nonsym 1-usesym 2-fastsym
   LCORR  =      T    Harris-Foulkes like correction to forces

   POTIM  = 0.5000    time-step for ionic-motion
   TEIN   =    0.0    initial temperature
   TEBEG  =    0.0;   TEEND  =   0.0 temperature during run
   SMASS  =  -3.00    Nose mass-parameter (am)
   estimated Nose-frequenzy (Omega)   =  0.10E-29 period in steps =****** mass=  -0.138E-26a.u.
   SCALEE = 1.0000    scale energy and forces
   NPACO  =    256;   APACO  = 16.0  distance and # of slots for P.C.
   PSTRESS=    0.0 pullay stress

  Mass of Ions in am
   POMASS =  88.91 12.01126.90
  Ionic Valenz
   ZVAL   =  11.00  4.00  7.00
  Atomic Wigner-Seitz radii
   RWIGS  =  -1.00 -1.00 -1.00
  virtual crystal weights 
   VCA    =   1.00  1.00  1.00
   NELECT =     153.0000    total number of electrons
   NUPDOWN=      -1.0000    fix difference up-down

 DOS related values:
   EMIN   =  10.00;   EMAX   =-10.00  energy-range for DOS
   EFERMI =   0.00
   ISMEAR =     0;   SIGMA  =   0.20  broadening in eV -4-tet -1-fermi 0-gaus

 Electronic relaxation 2 (details)
   IALGO  =     38    algorithm
   LDIAG  =      T    sub-space diagonalisation (order eigenvalues)
   LSUBROT=      F    optimize rotation matrix (better conditioning)
   TURBO    =      0    0=normal 1=particle mesh
   IRESTART =      0    0=no restart 2=restart with 2 vectors
   NREBOOT  =      0    no. of reboots
   NMIN     =      0    reboot dimension
   EREF     =   0.00    reference energy to select bands
   IMIX   =      4    mixing-type and parameters
     AMIX     =   0.40;   BMIX     =  1.00
     AMIX_MAG =   1.60;   BMIX_MAG =  1.00
     AMIN     =   0.10
     WC   =   100.;   INIMIX=   1;  MIXPRE=   1;  MAXMIX= -45

 Intra band minimization:
   WEIMIN = 0.0010     energy-eigenvalue tresh-hold
   EBREAK =  0.26E-07  absolut break condition
   DEPER  =   0.30     relativ break condition  

   TIME   =   0.40     timestep for ELM

  volume/ion in A,a.u.               =      30.55       206.16
  Fermi-wavevector in a.u.,A,eV,Ry     =   1.049675  1.983598 14.991144  1.101818
  Thomas-Fermi vector in A             =   2.184647

 Write flags
   LWAVE        =      F    write WAVECAR
   LDOWNSAMPLE  =      F    k-point downsampling of WAVECAR
   LCHARG       =      T    write CHGCAR
   LVTOT        =      F    write LOCPOT, total local potential
   LVHAR        =      F    write LOCPOT, Hartree potential only
   LELF         =      F    write electronic localiz. function (ELF)
   LORBIT       =     11    0 simple, 1 ext, 2 COOP (PROOUT), +10 PAW based schemes


 Dipole corrections
   LMONO  =      F    monopole corrections only (constant potential shift)
   LDIPOL =      F    correct potential (dipole corrections)
   IDIPOL =      0    1-x, 2-y, 3-z, 4-all directions 
   EPSILON=  1.0000000 bulk dielectric constant

 Exchange correlation treatment:
   GGA     =    --    GGA type
   LEXCH   =     8    internal setting for exchange type
   VOSKOWN=      0    Vosko Wilk Nusair interpolation
   LHFCALC =     F    Hartree Fock is set to
   LHFONE  =     F    Hartree Fock one center treatment
   AEXX    =    0.0000 exact exchange contribution

 Linear response parameters
   LEPSILON=     F    determine dielectric tensor
   LRPA    =     F    only Hartree local field effects (RPA)
   LNABLA  =     F    use nabla operator in PAW spheres
   LVEL    =     F    velocity operator in full k-point grid
   LINTERFAST=   F  fast interpolation
   KINTER  =     0    interpolate to denser k-point grid
   CSHIFT  =0.1000    complex shift for real part using Kramers Kronig
   OMEGAMAX=  -1.0    maximum frequency
   DEG_THRESHOLD= 0.2000000E-02 threshold for treating states as degnerate
   RTIME   =   -0.100 relaxation time in fs
  (WPLASMAI=    0.000 imaginary part of plasma frequency in eV, 0.658/RTIME)
   DFIELD  = 0.0000000 0.0000000 0.0000000 field for delta impulse in time

 Orbital magnetization related:
   ORBITALMAG=     F  switch on orbital magnetization
   LCHIMAG   =     F  perturbation theory with respect to B field
   DQ        =  0.001000  dq finite difference perturbation B field
   LLRAUG    =     F  two centre corrections for induced B field



--------------------------------------------------------------------------------------------------------


 quasi-Newton-method for relaxation of ions
 charge density and potential will be updated during run
 spin polarized calculation
 Variant of blocked Davidson
 Davidson routine will perform the subspace rotation
 perform sub-space diagonalisation
    after iterative eigenvector-optimisation
 modified Broyden-mixing scheme, WC =      100.0
 initial mixing is a Kerker type mixing with AMIX =  0.4000 and BMIX =      1.0000
 Hartree-type preconditioning will be used
 using additional bands           20
 real space projection scheme for non local part
 use partial core corrections
 calculate Harris-corrections to forces   (improved forces if not selfconsistent)
 use gradient corrections 
 use of overlap-Matrix (Vanderbilt PP)
 Gauss-broadening in eV      SIGMA  =   0.20


--------------------------------------------------------------------------------------------------------


  energy-cutoff  :      520.00
  volume of cell :      580.43
      direct lattice vectors                 reciprocal lattice vectors
     7.770644000  0.000004000  0.000000000     0.128689463 -0.000000038  0.000000012
     0.000002000  6.729576000  0.000000000    -0.000000076  0.148597772  0.000000013
    -0.000001000 -0.000001000 11.099577000     0.000000000  0.000000000  0.090093523

  length of vectors
     7.770644000  6.729576000 11.099577000     0.128689463  0.148597772  0.090093523



 k-points in units of 2pi/SCALE and weight: read from INCAR                         
   0.00000000  0.00000000  0.00000000       0.125
   0.06434473 -0.00000002  0.00000001       0.125
  -0.00000004  0.07429889  0.00000001       0.125
   0.06434469  0.07429887  0.00000001       0.125
   0.00000000  0.00000000  0.04504676       0.125
   0.06434473 -0.00000002  0.04504677       0.125
  -0.00000004  0.07429889  0.04504677       0.125
   0.06434469  0.07429887  0.04504677       0.125

 k-points in reciprocal lattice and weights: read from INCAR                         
   0.00000000  0.00000000  0.00000000       0.125
   0.50000000  0.00000000  0.00000000       0.125
   0.00000000  0.50000000  0.00000000       0.125
   0.50000000  0.50000000  0.00000000       0.125
   0.00000000  0.00000000  0.50000000       0.125
   0.50000000  0.00000000  0.50000000       0.125
   0.00000000  0.50000000  0.50000000       0.125
   0.50000000  0.50000000  0.50000000       0.125

 position of ions in fractional coordinates (direct lattice) 
   0.99762500  0.33353700  0.11918900
   0.50469500  0.33784500  0.11807500
   0.24724600  0.83133200  0.12106100
   0.75011000  0.83214900  0.11970900
   0.25075400  0.15026500  0.90074700
   0.73512800  0.16978500  0.87982500
   0.50268800  0.67214100  0.88954300
   0.99954600  0.67694000  0.88537500
   0.99166400  0.00327200  0.99701600
   0.50298800  0.00026100  0.00138300
   0.24909400  0.49842700  0.99984200
   0.75740100  0.49789900  0.99242700
   0.25127500  0.16520000  0.30886300
   0.74589800  0.16873600  0.31502800
   0.50187700  0.66832400  0.31188800
   0.99792600  0.66790100  0.31254600
   0.24682200  0.33168200  0.66723800
   0.25624900  0.81232100  0.68800000
   0.73594700  0.84865600  0.68504100

 position of ions in cartesian coordinates  (Angst):
   7.75218927  2.24456646  1.32294748
   3.92180573  2.27355550  1.31058255
   1.92126219  5.59451274  1.34372589
   5.82883932  5.60001282  1.32871926
   1.94851947  1.01121984  9.99791068
   5.71241744  1.14258312  9.76568533
   3.90620995  4.52322506  9.87355102
   7.76711660  4.55552229  9.82728799
   7.70586692  0.02202214 11.06645586
   3.90854068  0.00175843  0.01535071
   1.93562079  3.35420237 11.09782327
   5.88549354  3.35065120 11.01551990
   1.95256859  1.11172665  3.42824865
   5.79610784  1.13552440  3.49667754
   3.89990852  4.49753885  3.46182487
   7.75452871  4.49469422  3.46912839
   1.91796589  2.23207955  7.40605956
   1.99122069  5.46657624  7.63650898
   5.71878315  5.71109731  7.60366533



--------------------------------------------------------------------------------------------------------


 k-point  1 :   0.0000 0.0000 0.0000  plane waves:   15669
 k-point  2 :   0.5000 0.0000 0.0000  plane waves:   15660
 k-point  3 :   0.0000 0.5000 0.0000  plane waves:   15674
 k-point  4 :   0.5000 0.5000 0.0000  plane waves:   15604
 k-point  5 :   0.0000 0.0000 0.5000  plane waves:   15634
 k-point  6 :   0.5000 0.0000 0.5000  plane waves:   15620
 k-point  7 :   0.0000 0.5000 0.5000  plane waves:   15576
 k-point  8 :   0.5000 0.5000 0.5000  plane waves:   15592

 maximum and minimum number of plane-waves per node :      5250     5163

 maximum number of plane-waves:     15674
 maximum index in each direction: 
   IXMAX=   14   IYMAX=   12   IZMAX=   20
   IXMIN=  -14   IYMIN=  -13   IZMIN=  -21


 real space projection operators:
  total allocation   :      16950.15 KBytes
  max/ min on nodes  :       5672.77       5634.36


 parallel 3D FFT for wavefunctions:
    minimum data exchange during FFTs selected (reduces bandwidth)
 parallel 3D FFT for charge:
    minimum data exchange during FFTs selected (reduces bandwidth)


 total amount of memory used by VASP MPI-rank0   265329. kBytes
=======================================================================

   base      :      30000. kBytes
   nonlr-proj:       9750. kBytes
   fftplans  :      25286. kBytes
   grid      :      66476. kBytes
   one-center:        420. kBytes
   wavefun   :     133397. kBytes

     INWAV:  cpu time    0.0000: real time    0.0000
 Broyden mixing: mesh for mixing (old mesh)
   NGX = 29   NGY = 25   NGZ = 41
  (NGX  =120   NGY  =100   NGZ  =168)
  gives a total of  29725 points

 initial charge density was supplied:
 charge density of overlapping atoms calculated
 number of electron     153.0000000 magnetization      11.4000000
 keeping initial charge density in first step


--------------------------------------------------------------------------------------------------------


 Maximum index for non-local projection operator         2783
 Maximum index for augmentation-charges        10161 (set IRDMAX)


--------------------------------------------------------------------------------------------------------


 First call to EWALD:  gamma=   0.212
 Maximum number of real-space cells 3x 3x 2
 Maximum number of reciprocal cells 3x 2x 3

    FEWALD:  cpu time    0.0017: real time    0.0017


--------------------------------------- Iteration      1(   1)  ---------------------------------------


    POTLOK:  cpu time    1.8080: real time    1.8212
    SETDIJ:  cpu time    0.1915: real time    0.1930
     EDDAV:  cpu time   62.2799: real time   62.7463
       DOS:  cpu time    0.0052: real time    0.0052
    --------------------------------------------
      LOOP:  cpu time   64.2847: real time   64.7658

 eigenvalue-minimisations  :  3104
 total energy-change (2. order) : 0.1044858E+04  (-0.6852269E+04)
 number of electron     153.0000000 magnetization      11.4000000
 augmentation part      153.0000000 magnetization      11.4000000

 Free energy of the ion-electron system (eV)
  ---------------------------------------------------
  alpha Z        PSCENC =       490.14769152
  Ewald energy   TEWEN  =     -5502.88460020
  -Hartree energ DENC   =     -5181.43447586
  -exchange      EXHF   =         0.00000000
  -V(xc)+E(xc)   XCENC  =       295.86739766
  PAW double counting   =      8755.10086986    -8465.77839650
  entropy T*S    EENTRO =        -0.13827187
  eigenvalues    EBANDS =      -520.99167397
  atomic energy  EATOM  =     11174.96942390
  Solvation  Ediel_sol  =         0.00000000
  ---------------------------------------------------
  free energy    TOTEN  =      1044.85796455 eV

  energy without entropy =     1044.99623642  energy(sigma->0) =     1044.92710048


--------------------------------------------------------------------------------------------------------




--------------------------------------- Iteration      1(   2)  ---------------------------------------


     EDDAV:  cpu time   72.4860: real time   73.0355
       DOS:  cpu time    0.0053: real time    0.0053
    --------------------------------------------
      LOOP:  cpu time   72.4913: real time   73.0408

 eigenvalue-minimisations  :  3690
 total energy-change (2. order) :-0.1056036E+04  (-0.1012864E+04)
 number of electron     153.0000000 magnetization      11.4000000
 augmentation part      153.0000000 magnetization      11.4000000

 Free energy of the ion-electron system (eV)
  ---------------------------------------------------
  alpha Z        PSCENC =       490.14769152
  Ewald energy   TEWEN  =     -5502.88460020
  -Hartree energ DENC   =     -5181.43447586
  -exchange      EXHF   =         0.00000000
  -V(xc)+E(xc)   XCENC  =       295.86739766
  PAW double counting   =      8755.10086986    -8465.77839650
  entropy T*S    EENTRO =        -0.11632640
  eigenvalues    EBANDS =     -1577.04956682
  atomic energy  EATOM  =     11174.96942390
  Solvation  Ediel_sol  =         0.00000000
  ---------------------------------------------------
  free energy    TOTEN  =       -11.17798284 eV

  energy without entropy =      -11.06165644  energy(sigma->0) =      -11.11981964


--------------------------------------------------------------------------------------------------------




--------------------------------------- Iteration      1(   3)  ---------------------------------------


     EDDAV:  cpu time   81.6857: real time   82.2931
       DOS:  cpu time    0.0042: real time    0.0042
    --------------------------------------------
      LOOP:  cpu time   81.6899: real time   82.2974

 eigenvalue-minimisations  :  4256
 total energy-change (2. order) :-0.1142402E+03  (-0.1126472E+03)
 number of electron     153.0000000 magnetization      11.4000000
 augmentation part      153.0000000 magnetization      11.4000000

 Free energy of the ion-electron system (eV)
  ---------------------------------------------------
  alpha Z        PSCENC =       490.14769152
  Ewald energy   TEWEN  =     -5502.88460020
  -Hartree energ DENC   =     -5181.43447586
  -exchange      EXHF   =         0.00000000
  -V(xc)+E(xc)   XCENC  =       295.86739766
  PAW double counting   =      8755.10086986    -8465.77839650
  entropy T*S    EENTRO =        -0.10447211
  eigenvalues    EBANDS =     -1691.30166541
  atomic energy  EATOM  =     11174.96942390
  Solvation  Ediel_sol  =         0.00000000
  ---------------------------------------------------
  free energy    TOTEN  =      -125.41822714 eV

  energy without entropy =     -125.31375503  energy(sigma->0) =     -125.36599108


--------------------------------------------------------------------------------------------------------




--------------------------------------- Iteration      1(   4)  ---------------------------------------


     EDDAV:  cpu time   98.2349: real time   98.9656
       DOS:  cpu time    0.0045: real time    0.0045
    --------------------------------------------
      LOOP:  cpu time   98.2394: real time   98.9701

 eigenvalue-minimisations  :  5416
 total energy-change (2. order) :-0.1168479E+02  (-0.1164450E+02)
 number of electron     153.0000000 magnetization      11.4000000
 augmentation part      153.0000000 magnetization      11.4000000

 Free energy of the ion-electron system (eV)
  ---------------------------------------------------
  alpha Z        PSCENC =       490.14769152
  Ewald energy   TEWEN  =     -5502.88460020
  -Hartree energ DENC   =     -5181.43447586
  -exchange      EXHF   =         0.00000000
  -V(xc)+E(xc)   XCENC  =       295.86739766
  PAW double counting   =      8755.10086986    -8465.77839650
  entropy T*S    EENTRO =        -0.11115060
  eigenvalues    EBANDS =     -1702.97977628
  atomic energy  EATOM  =     11174.96942390
  Solvation  Ediel_sol  =         0.00000000
  ---------------------------------------------------
  free energy    TOTEN  =      -137.10301649 eV

  energy without entropy =     -136.99186589  energy(sigma->0) =     -137.04744119


--------------------------------------------------------------------------------------------------------




--------------------------------------- Iteration      1(   5)  ---------------------------------------


     EDDAV:  cpu time   90.8623: real time   91.5436
       DOS:  cpu time    0.0047: real time    0.0047
    CHARGE:  cpu time    2.8823: real time    2.9032
    MIXING:  cpu time    0.0327: real time    0.0329
    --------------------------------------------
      LOOP:  cpu time   93.7821: real time   94.4846

 eigenvalue-minimisations  :  4896
 total energy-change (2. order) :-0.8556135E+00  (-0.8552091E+00)
 number of electron     153.0000001 magnetization       7.2314841
 augmentation part        6.5564387 magnetization       6.6685541

 Broyden mixing:
  rms(total) = 0.79409E+01    rms(broyden)= 0.79409E+01
  rms(prec ) = 0.84021E+01
  weight for this iteration     100.00

 Free energy of the ion-electron system (eV)
  ---------------------------------------------------
  alpha Z        PSCENC =       490.14769152
  Ewald energy   TEWEN  =     -5502.88460020
  -Hartree energ DENC   =     -5181.43447586
  -exchange      EXHF   =         0.00000000
  -V(xc)+E(xc)   XCENC  =       295.86739766
  PAW double counting   =      8755.10086986    -8465.77839650
  entropy T*S    EENTRO =        -0.11095316
  eigenvalues    EBANDS =     -1703.83558718
  atomic energy  EATOM  =     11174.96942390
  Solvation  Ediel_sol  =         0.00000000
  ---------------------------------------------------
  free energy    TOTEN  =      -137.95862995 eV

  energy without entropy =     -137.84767680  energy(sigma->0) =     -137.90315338


--------------------------------------------------------------------------------------------------------




--------------------------------------- Iteration      1(   6)  ---------------------------------------


    POTLOK:  cpu time    2.1560: real time    2.1708
    SETDIJ:  cpu time    0.1917: real time    0.1930
     EDDAV:  cpu time   76.0854: real time   76.6539
       DOS:  cpu time    0.0043: real time    0.0043
    CHARGE:  cpu time    2.5992: real time    2.6166
    MIXING:  cpu time    0.0316: real time    0.0319
    --------------------------------------------
      LOOP:  cpu time   81.0682: real time   81.6704

 eigenvalue-minimisations  :  3919
 total energy-change (2. order) : 0.2402488E+02  (-0.1266242E+02)
 number of electron     153.0000002 magnetization       4.2375908
 augmentation part        6.5155506 magnetization       3.5949447

 Broyden mixing:
  rms(total) = 0.67039E+01    rms(broyden)= 0.67039E+01
  rms(prec ) = 0.67299E+01
  weight for this iteration     100.00

 eigenvalues of (default mixing * dielectric matrix)
  average eigenvalue GAMMA=   1.2649
  1.2649

 Free energy of the ion-electron system (eV)
  ---------------------------------------------------
  alpha Z        PSCENC =       490.14769152
  Ewald energy   TEWEN  =     -5502.88460020
  -Hartree energ DENC   =     -5192.68294621
  -exchange      EXHF   =         0.00000000
  -V(xc)+E(xc)   XCENC  =       296.40439594
  PAW double counting   =     11031.72315567   -10757.62433582
  entropy T*S    EENTRO =        -0.06371937
  eigenvalues    EBANDS =     -1653.92281431
  atomic energy  EATOM  =     11174.96942390
  Solvation  Ediel_sol  =         0.00000000
  ---------------------------------------------------
  free energy    TOTEN  =      -113.93374888 eV

  energy without entropy =     -113.87002951  energy(sigma->0) =     -113.90188920


--------------------------------------------------------------------------------------------------------




--------------------------------------- Iteration      1(   7)  ---------------------------------------


    POTLOK:  cpu time    2.0156: real time    2.0293
    SETDIJ:  cpu time    0.1242: real time    0.1249
     EDDAV:  cpu time   79.7815: real time   80.3816
       DOS:  cpu time    0.0037: real time    0.0037
    CHARGE:  cpu time    2.8682: real time    2.8881
    MIXING:  cpu time    0.0368: real time    0.0371
    --------------------------------------------
      LOOP:  cpu time   84.8302: real time   85.4648

 eigenvalue-minimisations  :  4200
 total energy-change (2. order) :-0.1280724E+01  (-0.2105375E+01)
 number of electron     153.0000002 magnetization       1.0295906
 augmentation part        5.3811156 magnetization       0.5405712

 Broyden mixing:
  rms(total) = 0.36649E+01    rms(broyden)= 0.36649E+01
  rms(prec ) = 0.36840E+01
  weight for this iteration     100.00

 eigenvalues of (default mixing * dielectric matrix)
  average eigenvalue GAMMA=   1.5905
  0.7120  2.4691

 Free energy of the ion-electron system (eV)
  ---------------------------------------------------
  alpha Z        PSCENC =       490.14769152
  Ewald energy   TEWEN  =     -5502.88460020
  -Hartree energ DENC   =     -5173.21429667
  -exchange      EXHF   =         0.00000000
  -V(xc)+E(xc)   XCENC  =       294.55437125
  PAW double counting   =     13153.41146669   -12888.64109845
  entropy T*S    EENTRO =        -0.12222226
  eigenvalues    EBANDS =     -1663.43520876
  atomic energy  EATOM  =     11174.96942390
  Solvation  Ediel_sol  =         0.00000000
  ---------------------------------------------------
  free energy    TOTEN  =      -115.21447298 eV

  energy without entropy =     -115.09225072  energy(sigma->0) =     -115.15336185


--------------------------------------------------------------------------------------------------------




--------------------------------------- Iteration      1(   8)  ---------------------------------------


    POTLOK:  cpu time    2.1117: real time    2.1275
    SETDIJ:  cpu time    0.1357: real time    0.1364
     EDDAV:  cpu time   76.7681: real time   77.3426
       DOS:  cpu time    0.0055: real time    0.0056
    CHARGE:  cpu time    2.8973: real time    2.9171
    MIXING:  cpu time    0.0389: real time    0.0392
    --------------------------------------------
      LOOP:  cpu time   81.9572: real time   82.5684

 eigenvalue-minimisations  :  3984
 total energy-change (2. order) :-0.3878024E+00  (-0.6636143E+00)
 number of electron     153.0000002 magnetization       0.7443358
 augmentation part        5.1230971 magnetization       0.3930012

 Broyden mixing:
  rms(total) = 0.11299E+01    rms(broyden)= 0.11299E+01
  rms(prec ) = 0.11781E+01
  weight for this iteration     100.00

 eigenvalues of (default mixing * dielectric matrix)
  average eigenvalue GAMMA=   1.3206
  2.4062  0.9300  0.6255

 Free energy of the ion-electron system (eV)
  ---------------------------------------------------
  alpha Z        PSCENC =       490.14769152
  Ewald energy   TEWEN  =     -5502.88460020
  -Hartree energ DENC   =     -5189.16321478
  -exchange      EXHF   =         0.00000000
  -V(xc)+E(xc)   XCENC  =       294.21085357
  PAW double counting   =     15167.95920051   -14898.08239211
  entropy T*S    EENTRO =        -0.08790499
  eigenvalues    EBANDS =     -1652.67133279
  atomic energy  EATOM  =     11174.96942390
  Solvation  Ediel_sol  =         0.00000000
  ---------------------------------------------------
  free energy    TOTEN  =      -115.60227537 eV

  energy without entropy =     -115.51437037  energy(sigma->0) =     -115.55832287


--------------------------------------------------------------------------------------------------------




--------------------------------------- Iteration      1(   9)  ---------------------------------------


    POTLOK:  cpu time    2.3062: real time    2.3233
    SETDIJ:  cpu time    0.1757: real time    0.1768
     EDDAV:  cpu time   79.0318: real time   79.6204
       DOS:  cpu time    0.0047: real time    0.0047
    CHARGE:  cpu time    2.6962: real time    2.7142
    MIXING:  cpu time    0.0375: real time    0.0378
    --------------------------------------------
      LOOP:  cpu time   84.2521: real time   84.8773

 eigenvalue-minimisations  :  4272
 total energy-change (2. order) : 0.2420707E+00  (-0.1503758E+00)
 number of electron     153.0000002 magnetization       0.5711830
 augmentation part        4.9636958 magnetization       0.3551713

 Broyden mixing:
  rms(total) = 0.26255E+00    rms(broyden)= 0.26254E+00
  rms(prec ) = 0.28567E+00
  weight for this iteration     100.00

 eigenvalues of (default mixing * dielectric matrix)
  average eigenvalue GAMMA=   1.2359
  2.3624  0.9855  0.9855  0.6102

 Free energy of the ion-electron system (eV)
  ---------------------------------------------------
  alpha Z        PSCENC =       490.14769152
  Ewald energy   TEWEN  =     -5502.88460020
  -Hartree energ DENC   =     -5196.13110897
  -exchange      EXHF   =         0.00000000
  -V(xc)+E(xc)   XCENC  =       294.64124641
  PAW double counting   =     15201.02828134   -14928.87769964
  entropy T*S    EENTRO =        -0.09196251
  eigenvalues    EBANDS =     -1648.16147653
  atomic energy  EATOM  =     11174.96942390
  Solvation  Ediel_sol  =         0.00000000
  ---------------------------------------------------
  free energy    TOTEN  =      -115.36020468 eV

  energy without entropy =     -115.26824216  energy(sigma->0) =     -115.31422342


--------------------------------------------------------------------------------------------------------




--------------------------------------- Iteration      1(  10)  ---------------------------------------


    POTLOK:  cpu time    2.3013: real time    2.3184
    SETDIJ:  cpu time    0.1815: real time    0.1827
     EDDAV:  cpu time   77.6637: real time   78.2404
       DOS:  cpu time    0.0046: real time    0.0046
    CHARGE:  cpu time    2.5779: real time    2.5948
    MIXING:  cpu time    0.0404: real time    0.0407
    --------------------------------------------
      LOOP:  cpu time   82.7694: real time   83.3817

 eigenvalue-minimisations  :  4216
 total energy-change (2. order) :-0.1653229E-01  (-0.2989567E-01)
 number of electron     153.0000002 magnetization       0.3448265
 augmentation part        4.8949317 magnetization       0.2028017

 Broyden mixing:
  rms(total) = 0.14718E+00    rms(broyden)= 0.14718E+00
  rms(prec ) = 0.16919E+00
  weight for this iteration     100.00

 eigenvalues of (default mixing * dielectric matrix)
  average eigenvalue GAMMA=   1.2362
  2.2864  1.6057  0.8327  0.8327  0.6233

 Free energy of the ion-electron system (eV)
  ---------------------------------------------------
  alpha Z        PSCENC =       490.14769152
  Ewald energy   TEWEN  =     -5502.88460020
  -Hartree energ DENC   =     -5203.82367649
  -exchange      EXHF   =         0.00000000
  -V(xc)+E(xc)   XCENC  =       295.02211746
  PAW double counting   =     15184.41726510   -14908.48639822
  entropy T*S    EENTRO =        -0.09361596
  eigenvalues    EBANDS =     -1644.64494408
  atomic energy  EATOM  =     11174.96942390
  Solvation  Ediel_sol  =         0.00000000
  ---------------------------------------------------
  free energy    TOTEN  =      -115.37673696 eV

  energy without entropy =     -115.28312100  energy(sigma->0) =     -115.32992898


--------------------------------------------------------------------------------------------------------




--------------------------------------- Iteration      1(  11)  ---------------------------------------


    POTLOK:  cpu time    2.0332: real time    2.0482
    SETDIJ:  cpu time    0.1537: real time    0.1546
     EDDAV:  cpu time   75.3343: real time   75.8951
       DOS:  cpu time    0.0052: real time    0.0053
    CHARGE:  cpu time    2.4312: real time    2.4469
    MIXING:  cpu time    0.0298: real time    0.0300
    --------------------------------------------
      LOOP:  cpu time   79.9873: real time   80.5801

 eigenvalue-minimisations  :  4016
 total energy-change (2. order) :-0.2413585E-02  (-0.9312432E-02)
 number of electron     153.0000002 magnetization       0.2036946
 augmentation part        4.8959678 magnetization       0.1270506

 Broyden mixing:
  rms(total) = 0.57414E-01    rms(broyden)= 0.57413E-01
  rms(prec ) = 0.67451E-01
  weight for this iteration     100.00

 eigenvalues of (default mixing * dielectric matrix)
  average eigenvalue GAMMA=   1.2714
  2.2586  2.2586  0.8906  0.8906  0.6093  0.7205

 Free energy of the ion-electron system (eV)
  ---------------------------------------------------
  alpha Z        PSCENC =       490.14769152
  Ewald energy   TEWEN  =     -5502.88460020
  -Hartree energ DENC   =     -5212.54802733
  -exchange      EXHF   =         0.00000000
  -V(xc)+E(xc)   XCENC  =       295.36892438
  PAW double counting   =     15162.19334174   -14881.29864781
  entropy T*S    EENTRO =        -0.09467272
  eigenvalues    EBANDS =     -1641.23258403
  atomic energy  EATOM  =     11174.96942390
  Solvation  Ediel_sol  =         0.00000000
  ---------------------------------------------------
  free energy    TOTEN  =      -115.37915055 eV

  energy without entropy =     -115.28447783  energy(sigma->0) =     -115.33181419


--------------------------------------------------------------------------------------------------------




--------------------------------------- Iteration      1(  12)  ---------------------------------------


    POTLOK:  cpu time    1.9156: real time    2.1362
    SETDIJ:  cpu time    0.1619: real time    0.1630
     EDDAV:  cpu time   78.2023: real time   78.7867
       DOS:  cpu time    0.0051: real time    0.0051
    CHARGE:  cpu time    2.7622: real time    2.7813
    MIXING:  cpu time    0.0335: real time    0.0338
    --------------------------------------------
      LOOP:  cpu time   83.0806: real time   83.9062

 eigenvalue-minimisations  :  4208
 total energy-change (2. order) :-0.2064192E-02  (-0.1020305E-02)
 number of electron     153.0000002 magnetization       0.1295854
 augmentation part        4.9237374 magnetization       0.0888535

 Broyden mixing:
  rms(total) = 0.31548E-01    rms(broyden)= 0.31548E-01
  rms(prec ) = 0.38157E-01
  weight for this iteration     100.00

 eigenvalues of (default mixing * dielectric matrix)
  average eigenvalue GAMMA=   1.2470
  2.2606  2.2606  1.2686  0.8491  0.8491  0.6205  0.6205

 Free energy of the ion-electron system (eV)
  ---------------------------------------------------
  alpha Z        PSCENC =       490.14769152
  Ewald energy   TEWEN  =     -5502.88460020
  -Hartree energ DENC   =     -5215.71139055
  -exchange      EXHF   =         0.00000000
  -V(xc)+E(xc)   XCENC  =       295.50529998
  PAW double counting   =     15178.50900543   -14896.10604337
  entropy T*S    EENTRO =        -0.09559127
  eigenvalues    EBANDS =     -1639.71501019
  atomic energy  EATOM  =     11174.96942390
  Solvation  Ediel_sol  =         0.00000000
  ---------------------------------------------------
  free energy    TOTEN  =      -115.38121474 eV

  energy without entropy =     -115.28562348  energy(sigma->0) =     -115.33341911


--------------------------------------------------------------------------------------------------------




--------------------------------------- Iteration      1(  13)  ---------------------------------------


    POTLOK:  cpu time    2.2027: real time    2.2191
    SETDIJ:  cpu time    0.1751: real time    0.1762
     EDDAV:  cpu time   75.4335: real time   75.9989
       DOS:  cpu time    0.0054: real time    0.0054
    CHARGE:  cpu time    2.8697: real time    2.8896
    MIXING:  cpu time    0.0437: real time    0.0440
    --------------------------------------------
      LOOP:  cpu time   80.7301: real time   81.3332

 eigenvalue-minimisations  :  4032
 total energy-change (2. order) :-0.9999557E-03  (-0.4314427E-03)
 number of electron     153.0000002 magnetization       0.0635246
 augmentation part        4.9285468 magnetization       0.0310595

 Broyden mixing:
  rms(total) = 0.16163E-01    rms(broyden)= 0.16163E-01
  rms(prec ) = 0.21042E-01
  weight for this iteration     100.00

 eigenvalues of (default mixing * dielectric matrix)
  average eigenvalue GAMMA=   1.2786
  2.3879  2.3879  1.4683  1.0830  0.8356  0.8356  0.6152  0.6152

 Free energy of the ion-electron system (eV)
  ---------------------------------------------------
  alpha Z        PSCENC =       490.14769152
  Ewald energy   TEWEN  =     -5502.88460020
  -Hartree energ DENC   =     -5216.58111409
  -exchange      EXHF   =         0.00000000
  -V(xc)+E(xc)   XCENC  =       295.53133524
  PAW double counting   =     15195.51234579   -14913.05094686
  entropy T*S    EENTRO =        -0.09557922
  eigenvalues    EBANDS =     -1638.93077078
  atomic energy  EATOM  =     11174.96942390
  Solvation  Ediel_sol  =         0.00000000
  ---------------------------------------------------
  free energy    TOTEN  =      -115.38221470 eV

  energy without entropy =     -115.28663548  energy(sigma->0) =     -115.33442509


--------------------------------------------------------------------------------------------------------




--------------------------------------- Iteration      1(  14)  ---------------------------------------


    POTLOK:  cpu time    2.1103: real time    2.1265
    SETDIJ:  cpu time    0.1668: real time    0.1679
     EDDAV:  cpu time   73.4323: real time   73.9814
       DOS:  cpu time    0.0049: real time    0.0049
    CHARGE:  cpu time    2.9156: real time    2.9354
    MIXING:  cpu time    0.0444: real time    0.0448
    --------------------------------------------
      LOOP:  cpu time   78.6743: real time   79.2609

 eigenvalue-minimisations  :  3880
 total energy-change (2. order) :-0.1046964E-02  (-0.2261902E-03)
 number of electron     153.0000002 magnetization       0.0243516
 augmentation part        4.9318070 magnetization       0.0071472

 Broyden mixing:
  rms(total) = 0.77980E-02    rms(broyden)= 0.77978E-02
  rms(prec ) = 0.10898E-01
  weight for this iteration     100.00

 eigenvalues of (default mixing * dielectric matrix)
  average eigenvalue GAMMA=   1.3203
  2.5543  2.5543  1.6228  1.4229  0.8563  0.8563  0.7813  0.6174  0.6174

 Free energy of the ion-electron system (eV)
  ---------------------------------------------------
  alpha Z        PSCENC =       490.14769152
  Ewald energy   TEWEN  =     -5502.88460020
  -Hartree energ DENC   =     -5217.80349363
  -exchange      EXHF   =         0.00000000
  -V(xc)+E(xc)   XCENC  =       295.57321462
  PAW double counting   =     15196.82521464   -14914.04588817
  entropy T*S    EENTRO =        -0.09550757
  eigenvalues    EBANDS =     -1638.06931677
  atomic energy  EATOM  =     11174.96942390
  Solvation  Ediel_sol  =         0.00000000
  ---------------------------------------------------
  free energy    TOTEN  =      -115.38326166 eV

  energy without entropy =     -115.28775409  energy(sigma->0) =     -115.33550788


--------------------------------------------------------------------------------------------------------




--------------------------------------- Iteration      1(  15)  ---------------------------------------


    POTLOK:  cpu time    2.2555: real time    2.2725
    SETDIJ:  cpu time    0.1706: real time    0.1717
     EDDAV:  cpu time   72.5212: real time   73.0602
       DOS:  cpu time    0.0043: real time    0.0043
    CHARGE:  cpu time    2.6949: real time    2.7132
    MIXING:  cpu time    0.0457: real time    0.0460
    --------------------------------------------
      LOOP:  cpu time   77.6922: real time   78.2680

 eigenvalue-minimisations  :  3840
 total energy-change (2. order) :-0.4428198E-03  (-0.6245707E-04)
 number of electron     153.0000002 magnetization       0.0034753
 augmentation part        4.9381318 magnetization      -0.0024761

 Broyden mixing:
  rms(total) = 0.47331E-02    rms(broyden)= 0.47331E-02
  rms(prec ) = 0.66845E-02
  weight for this iteration     100.00

 eigenvalues of (default mixing * dielectric matrix)
  average eigenvalue GAMMA=   1.3403
  2.7064  2.3378  2.3378  1.4389  0.9758  0.8081  0.8081  0.7388  0.6105  0.6406

 Free energy of the ion-electron system (eV)
  ---------------------------------------------------
  alpha Z        PSCENC =       490.14769152
  Ewald energy   TEWEN  =     -5502.88460020
  -Hartree energ DENC   =     -5218.24689410
  -exchange      EXHF   =         0.00000000
  -V(xc)+E(xc)   XCENC  =       295.59008654
  PAW double counting   =     15199.22691150   -14916.49050788
  entropy T*S    EENTRO =        -0.09563979
  eigenvalues    EBANDS =     -1637.60017598
  atomic energy  EATOM  =     11174.96942390
  Solvation  Ediel_sol  =         0.00000000
  ---------------------------------------------------
  free energy    TOTEN  =      -115.38370448 eV

  energy without entropy =     -115.28806469  energy(sigma->0) =     -115.33588459


--------------------------------------------------------------------------------------------------------




--------------------------------------- Iteration      1(  16)  ---------------------------------------


    POTLOK:  cpu time    2.0760: real time    2.0922
    SETDIJ:  cpu time    0.1547: real time    0.1557
     EDDAV:  cpu time   64.9833: real time   65.4600
       DOS:  cpu time    0.0042: real time    0.0042
    CHARGE:  cpu time    2.7117: real time    2.7299
    MIXING:  cpu time    0.0479: real time    0.0482
    --------------------------------------------
      LOOP:  cpu time   69.9777: real time   70.4902

 eigenvalue-minimisations  :  3304
 total energy-change (2. order) :-0.1342026E-03  (-0.2438600E-04)
 number of electron     153.0000002 magnetization      -0.0021687
 augmentation part        4.9388560 magnetization      -0.0034872

 Broyden mixing:
  rms(total) = 0.21556E-02    rms(broyden)= 0.21555E-02
  rms(prec ) = 0.28058E-02
  weight for this iteration     100.00

 eigenvalues of (default mixing * dielectric matrix)
  average eigenvalue GAMMA=   1.3717
  3.1515  2.3928  2.3928  1.6256  1.1055  0.8176  0.8176  0.8434  0.6108  0.6653
  0.6653

 Free energy of the ion-electron system (eV)
  ---------------------------------------------------
  alpha Z        PSCENC =       490.14769152
  Ewald energy   TEWEN  =     -5502.88460020
  -Hartree energ DENC   =     -5218.41624902
  -exchange      EXHF   =         0.00000000
  -V(xc)+E(xc)   XCENC  =       295.59428427
  PAW double counting   =     15200.63573985   -14918.04006153
  entropy T*S    EENTRO =        -0.09560016
  eigenvalues    EBANDS =     -1637.29446732
  atomic energy  EATOM  =     11174.96942390
  Solvation  Ediel_sol  =         0.00000000
  ---------------------------------------------------
  free energy    TOTEN  =      -115.38383868 eV

  energy without entropy =     -115.28823853  energy(sigma->0) =     -115.33603860


--------------------------------------------------------------------------------------------------------




--------------------------------------- Iteration      1(  17)  ---------------------------------------


    POTLOK:  cpu time    2.0239: real time    2.0393
    SETDIJ:  cpu time    0.1551: real time    0.1561
     EDDAV:  cpu time   56.4429: real time   56.8462
       DOS:  cpu time    0.0056: real time    0.0056
    CHARGE:  cpu time    2.6656: real time    2.6835
    MIXING:  cpu time    0.0379: real time    0.0382
    --------------------------------------------
      LOOP:  cpu time   61.3311: real time   61.7690

 eigenvalue-minimisations  :  3216
 total energy-change (2. order) :-0.3671656E-04  (-0.5022330E-05)
 number of electron     153.0000002 magnetization      -0.0018356
 augmentation part        4.9391317 magnetization      -0.0013724

 Broyden mixing:
  rms(total) = 0.11895E-02    rms(broyden)= 0.11895E-02
  rms(prec ) = 0.14388E-02
  weight for this iteration     100.00

 eigenvalues of (default mixing * dielectric matrix)
  average eigenvalue GAMMA=   1.3668
  3.2577  2.3865  2.3865  1.8865  1.1074  1.1074  0.8207  0.8207  0.7405  0.6217
  0.6217  0.6438

 Free energy of the ion-electron system (eV)
  ---------------------------------------------------
  alpha Z        PSCENC =       490.14769152
  Ewald energy   TEWEN  =     -5502.88460020
  -Hartree energ DENC   =     -5218.47772120
  -exchange      EXHF   =         0.00000000
  -V(xc)+E(xc)   XCENC  =       295.59623439
  PAW double counting   =     15198.72899061   -14916.20055754
  entropy T*S    EENTRO =        -0.09560590
  eigenvalues    EBANDS =     -1637.16773098
  atomic energy  EATOM  =     11174.96942390
  Solvation  Ediel_sol  =         0.00000000
  ---------------------------------------------------
  free energy    TOTEN  =      -115.38387540 eV

  energy without entropy =     -115.28826950  energy(sigma->0) =     -115.33607245


--------------------------------------------------------------------------------------------------------




--------------------------------------- Iteration      1(  18)  ---------------------------------------


    POTLOK:  cpu time    1.8010: real time    1.8134
    SETDIJ:  cpu time    0.1432: real time    0.1441
     EDDAV:  cpu time   38.7678: real time   39.0386
       DOS:  cpu time    0.0042: real time    0.0042
    --------------------------------------------
      LOOP:  cpu time   40.7161: real time   41.0002

 eigenvalue-minimisations  :  2440
 total energy-change (2. order) :-0.6563001E-05  (-0.5757679E-06)
 number of electron     153.0000002 magnetization      -0.0018356
 augmentation part        4.9391317 magnetization      -0.0013724

 Free energy of the ion-electron system (eV)
  ---------------------------------------------------
  alpha Z        PSCENC =       490.14769152
  Ewald energy   TEWEN  =     -5502.88460020
  -Hartree energ DENC   =     -5218.48432641
  -exchange      EXHF   =         0.00000000
  -V(xc)+E(xc)   XCENC  =       295.59598586
  PAW double counting   =     15197.54449444   -14915.03505251
  entropy T*S    EENTRO =        -0.09560885
  eigenvalues    EBANDS =     -1637.14188972
  atomic energy  EATOM  =     11174.96942390
  Solvation  Ediel_sol  =         0.00000000
  ---------------------------------------------------
  free energy    TOTEN  =      -115.38388196 eV

  energy without entropy =     -115.28827311  energy(sigma->0) =     -115.33607754


--------------------------------------------------------------------------------------------------------




 average (electrostatic) potential at core
  the test charge radii are     1.2780  0.6991  1.1875
  (the norm of the test charge is              1.0000)
       1 -36.8104       2 -36.8642       3 -36.9426       4 -36.8764       5 -36.5643
       6 -37.3759       7 -36.9485       8 -36.9683       9 -49.9770      10 -49.9827
      11 -49.9135      12 -50.0405      13 -92.6632      14 -92.6766      15 -92.7286
      16 -92.7319      17 -92.6345      18 -92.8037      19 -93.1839



 E-fermi :   3.6148     XC(G=0):  -8.6139     alpha+bet : -9.1734


 spin component 1

 k-point     1 :       0.0000    0.0000    0.0000
  band No.  band energies     occupation 
      1     -39.2624      1.00000
      2     -38.8687      1.00000
      3     -38.8474      1.00000
      4     -38.8287      1.00000
      5     -38.7678      1.00000
      6     -38.7558      1.00000
      7     -38.7012      1.00000
      8     -38.4876      1.00000
      9     -19.3952      1.00000
     10     -19.2960      1.00000
     11     -19.2577      1.00000
     12     -19.1093      1.00000
     13     -19.0757      1.00000
     14     -19.0560      1.00000
     15     -19.0040      1.00000
     16     -18.9444      1.00000
     17     -18.9131      1.00000
     18     -18.8493      1.00000
     19     -18.8364      1.00000
     20     -18.8087      1.00000
     21     -18.7982      1.00000
     22     -18.7860      1.00000
     23     -18.7600      1.00000
     24     -18.7370      1.00000
     25     -18.7190      1.00000
     26     -18.6937      1.00000
     27     -18.6853      1.00000
     28     -18.6577      1.00000
     29     -18.6547      1.00000
     30     -18.5426      1.00000
     31     -18.4737      1.00000
     32     -18.4651      1.00000
     33     -10.0540      1.00000
     34      -9.8917      1.00000
     35      -9.7297      1.00000
     36      -9.2772      1.00000
     37      -9.2409      1.00000
     38      -9.2097      1.00000
     39      -8.8585      1.00000
     40      -5.3905      1.00000
     41      -4.9508      1.00000
     42      -4.8900      1.00000
     43      -4.7686      1.00000
     44      -1.4912      1.00000
     45      -1.2552      1.00000
     46      -1.1143      1.00000
     47      -0.7810      1.00000
     48      -0.6956      1.00000
     49      -0.6675      1.00000
     50      -0.5408      1.00000
     51      -0.2585      1.00000
     52      -0.1953      1.00000
     53       0.1279      1.00000
     54       0.1522      1.00000
     55       0.2755      1.00000
     56       0.3429      1.00000
     57       0.3958      1.00000
     58       0.6150      1.00000
     59       0.7265      1.00000
     60       1.2236      1.00000
     61       1.2704      1.00000
     62       1.3919      1.00000
     63       1.5399      1.00000
     64       1.5528      1.00000
     65       1.6604      1.00000
     66       1.7551      1.00000
     67       1.7892      1.00000
     68       1.9331      1.00000
     69       2.0412      1.00000
     70       2.2690      1.00000
     71       2.3540      1.00000
     72       2.4982      1.00000
     73       2.5584      1.00000
     74       2.5956      1.00000
     75       2.7131      1.00000
     76       3.4151      0.92098
     77       3.5573      0.65783
     78       4.2556      0.00000
     79       4.4286      0.00000
     80       4.7426      0.00000
     81       4.8639      0.00000
     82       5.2157      0.00000
     83       5.2372      0.00000
     84       5.3961      0.00000
     85       5.7359      0.00000
     86       5.8314      0.00000
     87       6.4690      0.00000
     88       6.5093      0.00000
     89       6.6054      0.00000
     90       6.6628      0.00000
     91       6.7976      0.00000
     92       6.9522      0.00000
     93       6.9761      0.00000
     94       7.0997      0.00000
     95       7.1621      0.00000
     96       7.2682      0.00000
     97       7.3223      0.00000

 k-point     2 :       0.5000    0.0000    0.0000
  band No.  band energies     occupation 
      1     -39.2624      1.00000
      2     -38.8646      1.00000
      3     -38.8528      1.00000
      4     -38.8275      1.00000
      5     -38.7677      1.00000
      6     -38.7555      1.00000
      7     -38.7016      1.00000
      8     -38.4876      1.00000
      9     -19.3940      1.00000
     10     -19.2881      1.00000
     11     -19.2519      1.00000
     12     -19.0956      1.00000
     13     -19.0745      1.00000
     14     -19.0260      1.00000
     15     -18.9615      1.00000
     16     -18.9429      1.00000
     17     -18.9231      1.00000
     18     -18.9001      1.00000
     19     -18.8533      1.00000
     20     -18.8022      1.00000
     21     -18.7948      1.00000
     22     -18.7710      1.00000
     23     -18.7511      1.00000
     24     -18.7419      1.00000
     25     -18.7252      1.00000
     26     -18.7088      1.00000
     27     -18.6949      1.00000
     28     -18.6900      1.00000
     29     -18.6579      1.00000
     30     -18.5362      1.00000
     31     -18.4816      1.00000
     32     -18.4599      1.00000
     33      -9.9496      1.00000
     34      -9.8305      1.00000
     35      -9.6747      1.00000
     36      -9.6420      1.00000
     37      -9.1667      1.00000
     38      -9.1605      1.00000
     39      -8.8681      1.00000
     40      -5.2241      1.00000
     41      -5.1359      1.00000
     42      -4.8738      1.00000
     43      -4.7524      1.00000
     44      -1.4629      1.00000
     45      -0.8352      1.00000
     46      -0.7799      1.00000
     47      -0.5868      1.00000
     48      -0.4834      1.00000
     49      -0.3927      1.00000
     50      -0.2852      1.00000
     51      -0.2257      1.00000
     52      -0.1770      1.00000
     53      -0.0424      1.00000
     54       0.0291      1.00000
     55       0.0806      1.00000
     56       0.2565      1.00000
     57       0.3218      1.00000
     58       0.5528      1.00000
     59       0.6349      1.00000
     60       0.6876      1.00000
     61       0.8583      1.00000
     62       1.4789      1.00000
     63       1.5132      1.00000
     64       1.5468      1.00000
     65       1.5862      1.00000
     66       1.6990      1.00000
     67       1.7634      1.00000
     68       1.8645      1.00000
     69       1.9368      1.00000
     70       2.0127      1.00000
     71       2.0561      1.00000
     72       2.2422      1.00000
     73       2.3329      1.00000
     74       2.4044      1.00000
     75       2.6591      1.00000
     76       3.4675      0.85114
     77       4.3896      0.00000
     78       4.4960      0.00000
     79       4.5335      0.00000
     80       4.6866      0.00000
     81       4.8828      0.00000
     82       5.1956      0.00000
     83       5.3037      0.00000
     84       5.4611      0.00000
     85       5.7679      0.00000
     86       5.8092      0.00000
     87       6.0413      0.00000
     88       6.1387      0.00000
     89       6.2180      0.00000
     90       6.5092      0.00000
     91       6.5688      0.00000
     92       6.6024      0.00000
     93       6.7685      0.00000
     94       7.0760      0.00000
     95       7.1460      0.00000
     96       7.2062      0.00000
     97       7.2772      0.00000

 k-point     3 :       0.0000    0.5000    0.0000
  band No.  band energies     occupation 
      1     -39.2623      1.00000
      2     -38.8681      1.00000
      3     -38.8472      1.00000
      4     -38.8291      1.00000
      5     -38.7670      1.00000
      6     -38.7568      1.00000
      7     -38.7016      1.00000
      8     -38.4876      1.00000
      9     -19.3929      1.00000
     10     -19.3035      1.00000
     11     -19.2520      1.00000
     12     -19.1080      1.00000
     13     -19.0891      1.00000
     14     -19.0297      1.00000
     15     -19.0165      1.00000
     16     -18.9339      1.00000
     17     -18.9030      1.00000
     18     -18.8642      1.00000
     19     -18.8310      1.00000
     20     -18.8119      1.00000
     21     -18.7933      1.00000
     22     -18.7774      1.00000
     23     -18.7568      1.00000
     24     -18.7427      1.00000
     25     -18.7172      1.00000
     26     -18.7009      1.00000
     27     -18.6944      1.00000
     28     -18.6680      1.00000
     29     -18.6551      1.00000
     30     -18.5389      1.00000
     31     -18.4733      1.00000
     32     -18.4667      1.00000
     33      -9.9323      1.00000
     34      -9.6254      1.00000
     35      -9.5772      1.00000
     36      -9.5432      1.00000
     37      -9.2739      1.00000
     38      -9.2638      1.00000
     39      -9.1939      1.00000
     40      -5.1699      1.00000
     41      -5.1086      1.00000
     42      -4.9106      1.00000
     43      -4.7921      1.00000
     44      -1.2890      1.00000
     45      -1.2527      1.00000
     46      -1.0142      1.00000
     47      -0.6399      1.00000
     48      -0.4263      1.00000
     49      -0.3191      1.00000
     50      -0.2589      1.00000
     51      -0.0897      1.00000
     52       0.0400      1.00000
     53       0.1456      1.00000
     54       0.1805      1.00000
     55       0.2323      1.00000
     56       0.2820      1.00000
     57       0.4443      1.00000
     58       0.5866      1.00000
     59       0.9069      1.00000
     60       1.2223      1.00000
     61       1.2366      1.00000
     62       1.2958      1.00000
     63       1.3698      1.00000
     64       1.4175      1.00000
     65       1.5152      1.00000
     66       1.5593      1.00000
     67       1.6394      1.00000
     68       1.8383      1.00000
     69       2.0078      1.00000
     70       2.0474      1.00000
     71       2.2492      1.00000
     72       2.4010      1.00000
     73       2.4445      1.00000
     74       2.4951      1.00000
     75       2.5350      1.00000
     76       2.6014      1.00000
     77       3.4922      0.80703
     78       3.5332      0.71807
     79       4.0330      0.00155
     80       4.2749      0.00000
     81       4.9962      0.00000
     82       5.2547      0.00000
     83       5.7607      0.00000
     84       5.9322      0.00000
     85       6.0618      0.00000
     86       6.0930      0.00000
     87       6.4112      0.00000
     88       6.5899      0.00000
     89       6.7437      0.00000
     90       6.8301      0.00000
     91       6.9488      0.00000
     92       7.0455      0.00000
     93       7.0964      0.00000
     94       7.1064      0.00000
     95       7.2461      0.00000
     96       7.2944      0.00000
     97       7.3485      0.00000

 k-point     4 :       0.5000    0.5000    0.0000
  band No.  band energies     occupation 
      1     -39.2622      1.00000
      2     -38.8642      1.00000
      3     -38.8523      1.00000
      4     -38.8280      1.00000
      5     -38.7669      1.00000
      6     -38.7564      1.00000
      7     -38.7020      1.00000
      8     -38.4876      1.00000
      9     -19.3924      1.00000
     10     -19.2920      1.00000
     11     -19.2455      1.00000
     12     -19.0959      1.00000
     13     -19.0732      1.00000
     14     -19.0071      1.00000
     15     -18.9558      1.00000
     16     -18.9465      1.00000
     17     -18.9407      1.00000
     18     -18.8894      1.00000
     19     -18.8595      1.00000
     20     -18.8217      1.00000
     21     -18.7967      1.00000
     22     -18.7630      1.00000
     23     -18.7571      1.00000
     24     -18.7493      1.00000
     25     -18.7202      1.00000
     26     -18.7048      1.00000
     27     -18.6891      1.00000
     28     -18.6839      1.00000
     29     -18.6669      1.00000
     30     -18.5352      1.00000
     31     -18.4813      1.00000
     32     -18.4606      1.00000
     33      -9.8550      1.00000
     34      -9.6341      1.00000
     35      -9.4675      1.00000
     36      -9.4447      1.00000
     37      -9.4130      1.00000
     38      -9.3840      1.00000
     39      -9.2498      1.00000
     40      -5.0798      1.00000
     41      -5.0559      1.00000
     42      -4.9911      1.00000
     43      -4.8454      1.00000
     44      -0.5483      1.00000
     45      -0.4792      1.00000
     46      -0.4685      1.00000
     47      -0.4356      1.00000
     48      -0.3990      1.00000
     49      -0.3487      1.00000
     50      -0.3298      1.00000
     51      -0.2413      1.00000
     52      -0.2166      1.00000
     53      -0.0741      1.00000
     54       0.0263      1.00000
     55       0.0721      1.00000
     56       0.1819      1.00000
     57       0.2633      1.00000
     58       0.5025      1.00000
     59       0.5924      1.00000
     60       0.9319      1.00000
     61       1.0976      1.00000
     62       1.1164      1.00000
     63       1.1662      1.00000
     64       1.1967      1.00000
     65       1.4133      1.00000
     66       1.5275      1.00000
     67       1.7215      1.00000
     68       1.7821      1.00000
     69       1.9807      1.00000
     70       2.0543      1.00000
     71       2.1179      1.00000
     72       2.2391      1.00000
     73       2.2680      1.00000
     74       2.3127      1.00000
     75       2.3780      1.00000
     76       2.5034      1.00000
     77       4.0642      0.00074
     78       4.0712      0.00063
     79       4.2395      0.00000
     80       4.2920      0.00000
     81       4.8423      0.00000
     82       5.1260      0.00000
     83       5.3569      0.00000
     84       5.5037      0.00000
     85       5.6109      0.00000
     86       5.9539      0.00000
     87       6.2636      0.00000
     88       6.4522      0.00000
     89       6.5517      0.00000
     90       6.7952      0.00000
     91       6.9269      0.00000
     92       6.9542      0.00000
     93       7.0215      0.00000
     94       7.1267      0.00000
     95       7.1739      0.00000
     96       7.3247      0.00000
     97       7.3708      0.00000

 k-point     5 :       0.0000    0.0000    0.5000
  band No.  band energies     occupation 
[...]
  0.000  -0.001  -0.004  -0.006   0.274   0.002   0.004  -0.272  -0.043  -0.001   0.004   0.009  -0.000   0.023   0.000  -0.003
 -0.000  -0.000  -0.119   0.001   0.008   0.120   0.000  -0.007  -0.005   0.034   0.003   0.004  -0.025   0.002  -0.021  -0.001
 -0.004   0.027  -0.003   0.182   0.002   0.002  -0.181  -0.001   0.005   0.003  -0.037  -0.002   0.002  -0.003  -0.002   0.018
  0.001  -0.002   0.009  -0.010  -0.117  -0.008   0.008   0.119  -0.025   0.004  -0.000   0.029  -0.004   0.013  -0.002   0.000
 -0.000  -0.003   0.258  -0.006  -0.012  -0.258   0.006   0.011   0.000   0.006  -0.000  -0.004  -0.050  -0.000  -0.004   0.000
  0.000  -0.001   0.011  -0.004  -0.002  -0.009   0.004   0.001   0.000   0.002   0.000  -0.003  -0.001  -0.000  -0.001  -0.000
 total augmentation occupancy for first ion, spin component:           2
 -0.000   0.000   0.000  -0.000  -0.000  -0.000   0.000   0.000   0.000  -0.000  -0.000   0.000  -0.000  -0.000   0.000   0.000
  0.000   0.000  -0.000  -0.000   0.000   0.000   0.000  -0.000  -0.000  -0.000   0.000   0.000   0.000   0.000  -0.000   0.000
  0.000  -0.000  -0.000   0.000  -0.000   0.000  -0.000   0.000  -0.000   0.000   0.000   0.000   0.000   0.000  -0.000  -0.000
 -0.000  -0.000   0.000   0.000   0.000  -0.000  -0.000  -0.000   0.000  -0.000  -0.000  -0.000   0.000  -0.000   0.000  -0.000
 -0.000   0.000  -0.000   0.000  -0.000   0.000  -0.000   0.000  -0.000   0.000  -0.000   0.000  -0.000  -0.000  -0.000   0.000
 -0.000   0.000   0.000  -0.000   0.000  -0.000   0.000  -0.000   0.000  -0.000  -0.000  -0.000  -0.000   0.000   0.000   0.000
  0.000   0.000  -0.000  -0.000  -0.000   0.000   0.000   0.000  -0.000   0.000   0.000   0.000  -0.000   0.000  -0.000   0.000
  0.000  -0.000   0.000  -0.000   0.000  -0.000   0.000  -0.000   0.000  -0.000   0.000  -0.000   0.000   0.000   0.000  -0.000
  0.000  -0.000  -0.000   0.000  -0.000   0.000  -0.000   0.000   0.000   0.000   0.000   0.000  -0.000  -0.000  -0.000   0.000
 -0.000  -0.000   0.000  -0.000   0.000  -0.000   0.000  -0.000   0.000  -0.000   0.000   0.000   0.000  -0.000   0.000  -0.000
 -0.000   0.000   0.000  -0.000  -0.000  -0.000   0.000   0.000   0.000   0.000  -0.000   0.000   0.000  -0.000  -0.000   0.000
  0.000   0.000   0.000  -0.000   0.000  -0.000   0.000  -0.000   0.000   0.000   0.000  -0.000   0.000  -0.000   0.000  -0.000
 -0.000   0.000   0.000   0.000  -0.000  -0.000  -0.000   0.000  -0.000   0.000   0.000   0.000  -0.000   0.000  -0.000  -0.000
 -0.000   0.000   0.000  -0.000  -0.000   0.000   0.000   0.000  -0.000  -0.000  -0.000  -0.000   0.000   0.000   0.000  -0.000
  0.000  -0.000  -0.000   0.000  -0.000   0.000  -0.000   0.000  -0.000   0.000  -0.000   0.000  -0.000   0.000  -0.000   0.000
  0.000   0.000  -0.000  -0.000   0.000   0.000   0.000  -0.000   0.000  -0.000   0.000  -0.000  -0.000  -0.000   0.000  -0.000
 -0.000  -0.000  -0.000   0.000  -0.000   0.000  -0.000   0.000  -0.000  -0.000   0.000   0.000   0.000   0.000  -0.000  -0.000
  0.000   0.000  -0.000   0.000  -0.000   0.000   0.000   0.000   0.000  -0.000  -0.000  -0.000   0.000  -0.000   0.000   0.000
 -0.000  -0.000   0.000   0.000  -0.000  -0.000  -0.000   0.000   0.000  -0.000   0.000  -0.000   0.000  -0.000   0.000  -0.000
  0.000  -0.000  -0.000   0.000  -0.000   0.000  -0.000   0.000  -0.000   0.000  -0.000   0.000  -0.000   0.000   0.000   0.000
  0.000   0.000   0.000   0.000   0.000  -0.000  -0.000  -0.000  -0.000   0.000  -0.000   0.000  -0.000   0.000  -0.000   0.000
 -0.000  -0.000   0.000  -0.000   0.000  -0.000   0.000  -0.000   0.000  -0.000   0.000  -0.000  -0.000  -0.000   0.000  -0.000
  0.000   0.000   0.000  -0.000   0.000  -0.000   0.000  -0.000   0.000  -0.000  -0.000   0.000   0.000  -0.000  -0.000   0.000
  0.000   0.000  -0.000  -0.000   0.000   0.000   0.000  -0.000   0.000  -0.000   0.000  -0.000   0.000  -0.000   0.000  -0.000
 -0.000  -0.000  -0.000   0.000  -0.000   0.000  -0.000   0.000  -0.000   0.000   0.000   0.000  -0.000   0.000  -0.000  -0.000


------------------------ aborting loop because EDIFF is reached ----------------------------------------





 total charge     

# of ion       s       p       d       f       tot
--------------------------------------------------
    1        2.183   6.372   0.944   0.043   9.542
    2        2.183   6.372   0.944   0.043   9.542
    3        2.184   6.373   0.940   0.044   9.540
    4        2.183   6.369   0.937   0.043   9.532
    5        2.202   6.398   1.000   0.046   9.646
    6        2.206   6.319   1.006   0.039   9.570
    7        2.187   6.336   0.947   0.040   9.509
    8        2.187   6.336   0.947   0.040   9.508
    9        0.864   1.380   0.000   0.000   2.244
   10        0.864   1.380   0.000   0.000   2.244
   11        0.865   1.380   0.000   0.000   2.245
   12        0.864   1.360   0.000   0.000   2.225
   13        1.509   2.832   0.020   0.000   4.361
   14        1.507   2.833   0.019   0.000   4.359
   15        1.508   2.832   0.019   0.000   4.358
   16        1.508   2.832   0.019   0.000   4.358
   17        1.512   2.805   0.015   0.000   4.332
   18        1.515   2.844   0.028   0.000   4.387
   19        1.504   2.822   0.013   0.000   4.339
--------------------------------------------------
tot         31.535  76.173   7.797   0.337 115.842




 magnetization (x)

# of ion       s       p       d       f       tot
--------------------------------------------------
    1        0.000   0.000   0.000   0.000   0.000
    2        0.000  -0.000   0.000   0.000   0.000
    3       -0.000   0.000   0.000   0.000   0.000
    4       -0.000   0.000   0.000   0.000   0.000
    5        0.000   0.000   0.000  -0.000   0.000
    6        0.000   0.000   0.000   0.000   0.000
    7        0.000   0.000  -0.000   0.000  -0.000
    8        0.000   0.000   0.000   0.000   0.000
    9        0.000   0.000   0.000   0.000   0.000
   10       -0.000  -0.000   0.000   0.000  -0.000
   11       -0.000  -0.000   0.000   0.000  -0.000
   12        0.000  -0.000   0.000   0.000  -0.000
   13       -0.000   0.000   0.000   0.000   0.000
   14       -0.000  -0.000  -0.000   0.000  -0.000
   15        0.000   0.000   0.000   0.000   0.000
   16       -0.000   0.000   0.000   0.000   0.000
   17        0.000   0.000  -0.000   0.000   0.000
   18        0.000   0.000   0.000   0.000   0.000
   19       -0.000   0.000  -0.000   0.000   0.000
--------------------------------------------------
tot         -0.000   0.000   0.000   0.000   0.000


    CHARGE:  cpu time    2.7153: real time    2.7325
    FORLOC:  cpu time    0.1503: real time    0.1511
    FORNL :  cpu time   19.1452: real time   19.2594
    STRESS:  cpu time   42.8419: real time   43.1079
    FORCOR:  cpu time    1.1853: real time    1.1908
    FORHAR:  cpu time    0.2091: real time    0.2100
    MIXING:  cpu time    0.0194: real time    0.0195
    OFIELD:  cpu time    0.0000: real time    0.0000

  FORCE on cell =-STRESS in cart. coord.  units (eV):
  Direction    XX          YY          ZZ          XY          YZ          ZX
  --------------------------------------------------------------------------------------
  Alpha Z   490.14769   490.14769   490.14769
  Ewald     487.95015   588.36556 -6616.16712     0.10788    -3.51877    -0.23070
  Hartree  3911.59124  3957.80124 -2691.07579     0.05021     2.17071    -0.11332
  E(xc)    -597.71458  -597.45859  -598.06504     0.00025    -0.02236    -0.00032
  Local   -6537.26463 -6684.14844  7189.68429    -0.16223     0.73705     0.34706
  n-local   535.82979   538.59390   540.96898    -0.00034     0.49739     0.00413
  augment  -143.37603  -143.87833  -142.56118     0.00073    -0.16902     0.00007
  Kinetic  1845.97664  1849.57104  1828.19958     0.00388     0.50457    -0.01899
  Fock        0.00000     0.00000     0.00000     0.00000     0.00000     0.00000
  -------------------------------------------------------------------------------------
  Total      -6.85973    -1.00593     1.13141     0.00038     0.19956    -0.01207
  in kB     -18.93504    -2.77668     3.12305     0.00105     0.55085    -0.03332
  external pressure =       -6.20 kB  Pullay stress =        0.00 kB


 VOLUME and BASIS-vectors are now :
 -----------------------------------------------------------------------------
  energy-cutoff  :      520.00
  volume of cell :      580.43
      direct lattice vectors                 reciprocal lattice vectors
     7.770644000  0.000004000  0.000000000     0.128689463 -0.000000038  0.000000012
     0.000002000  6.729576000  0.000000000    -0.000000076  0.148597772  0.000000013
    -0.000001000 -0.000001000 11.099577000     0.000000000  0.000000000  0.090093523

  length of vectors
     7.770644000  6.729576000 11.099577000     0.128689463  0.148597772  0.090093523


 FORCES acting on ions
    electron-ion (+dipol)            ewald-force                    non-local-force                 convergence-correction
 -----------------------------------------------------------------------------------------------
   0.983E+01 0.432E+00 -.347E+03   -.981E+01 -.291E+00 0.343E+03   -.224E-01 -.142E+00 0.441E+01   -.569E-03 0.190E-03 -.194E-03
   -.983E+01 0.294E+00 -.347E+03   0.981E+01 -.161E+00 0.343E+03   0.224E-01 -.134E+00 0.441E+01   0.425E-03 -.150E-03 0.163E-03
   0.740E-01 -.106E+02 -.366E+03   -.698E-01 0.973E+01 0.362E+03   -.374E-02 0.912E+00 0.418E+01   -.166E-03 0.104E-02 0.673E-03
   -.788E-01 0.100E+02 -.355E+03   0.749E-01 -.945E+01 0.351E+03   0.342E-02 -.569E+00 0.454E+01   0.270E-03 0.911E-03 0.185E-03
   -.551E-01 -.304E+02 0.415E+03   0.506E-01 0.300E+02 -.411E+03   0.478E-02 0.435E+00 -.409E+01   -.183E-03 0.507E-03 -.223E-02
   0.541E-01 -.652E+02 0.517E+03   -.494E-01 0.636E+02 -.508E+03   -.450E-02 0.152E+01 -.911E+01   0.165E-03 0.907E-03 -.915E-03
   -.410E+02 0.497E+02 0.460E+03   0.406E+02 -.486E+02 -.454E+03   0.370E+00 -.118E+01 -.648E+01   0.804E-03 0.125E-02 0.479E-03
   0.410E+02 0.498E+02 0.460E+03   -.406E+02 -.486E+02 -.454E+03   -.370E+00 -.118E+01 -.649E+01   -.781E-03 0.111E-02 -.609E-04
   -.220E+01 -.320E+01 0.185E+02   0.209E+01 0.320E+01 -.188E+02   0.109E+00 0.102E-02 0.259E+00   -.116E-03 0.325E-03 -.216E-03
   0.218E+01 -.321E+01 0.185E+02   -.207E+01 0.321E+01 -.188E+02   -.107E+00 0.462E-03 0.251E+00   0.206E-03 0.173E-03 -.539E-04
   -.157E-01 0.823E+01 0.158E+02   0.143E-01 -.809E+01 -.158E+02   0.188E-02 -.138E+00 0.559E-01   0.291E-04 0.645E-04 -.254E-03
   0.469E-02 0.742E+00 0.468E+02   -.510E-02 -.792E+00 -.467E+02   0.122E-03 0.481E-01 -.526E-01   0.169E-03 0.297E-03 0.660E-04
   0.614E-01 0.593E+00 -.376E+03   -.611E-01 -.569E+00 0.378E+03   0.691E-04 -.245E-01 -.249E+01   -.163E-04 -.596E-04 0.772E-03
   -.506E-01 -.328E+01 -.389E+03   0.502E-01 0.325E+01 0.392E+03   -.292E-03 0.250E-01 -.235E+01   0.407E-04 -.106E-03 0.705E-03
   -.767E+01 0.164E+01 -.380E+03   0.768E+01 -.165E+01 0.382E+03   -.622E-02 0.432E-02 -.241E+01   -.516E-04 0.551E-04 0.452E-03
   0.771E+01 0.167E+01 -.380E+03   -.771E+01 -.167E+01 0.382E+03   0.479E-02 0.299E-02 -.241E+01   0.812E-04 0.548E-04 0.473E-03
   0.133E-01 0.130E+01 0.286E+03   -.126E-01 -.124E+01 -.289E+03   -.567E-03 -.491E-01 0.242E+01   -.286E-03 -.156E-02 -.142E-02
   -.807E-02 -.841E+01 0.369E+03   0.952E-02 0.873E+01 -.371E+03   0.783E-04 -.314E+00 0.199E+01   -.745E-04 -.231E-03 -.422E-03
   -.141E-01 0.737E+00 0.343E+03   0.133E-01 -.709E+00 -.346E+03   0.147E-02 -.294E-01 0.250E+01   -.255E-04 0.484E-03 -.111E-03
 -----------------------------------------------------------------------------------------------
   0.410E-03 0.808E+00 0.109E+02   -.334E-14 -.258E-13 0.398E-12   0.434E-02 -.812E+00 -.109E+02   -.781E-04 0.526E-02 -.191E-02


 POSITION                                       TOTAL-FORCE (eV/Angst)
 -----------------------------------------------------------------------------------
      7.74333      2.23809      1.32421        -0.000410     -0.001345      0.000533
      3.89156      2.23771      1.32447         0.000052     -0.000686     -0.000481
      1.93254      5.55334      1.35756         0.000023     -0.001479     -0.000099
      5.81760      5.56636      1.32324        -0.000435     -0.002640     -0.000823
      1.93193      1.10631      9.92572        -0.000211     -0.001652      0.001481
      5.81730      1.01042      9.88397         0.000139     -0.002187      0.000214
      3.82962      4.48192      9.81499        -0.001317     -0.001817     -0.002272
      7.80527      4.48205      9.81455         0.001591     -0.001980     -0.001885
      7.72080     -0.02327     11.07116         0.001040     -0.000294      0.000161
      3.91396     -0.02325     -0.02706         0.000014     -0.000107     -0.001155
      1.93192      3.38390     11.13468         0.000208     -0.000283      0.000181
      5.81749      3.29868     11.01437        -0.000365     -0.002330     -0.000230
      1.93264      1.09726      3.44241         0.000169     -0.000548      0.000759
      5.81763      1.08947      3.47282        -0.000898     -0.000998     -0.000530
      3.88383      4.45889      3.49420        -0.000409     -0.000882     -0.000159
      7.75289      4.45969      3.49359        -0.000374     -0.000877     -0.000044
      1.93181      2.51554      7.25887        -0.000467      0.010534      0.008954
      1.93261      5.83040      7.76196         0.001208      0.010061     -0.004634
      5.81724      5.55956      7.58196         0.000443     -0.000491      0.000032
 -----------------------------------------------------------------------------------
    total drift:                                0.004669      0.001437     -0.013381


--------------------------------------------------------------------------------------------------------



  FREE ENERGIE OF THE ION-ELECTRON SYSTEM (eV)
  ---------------------------------------------------
  free  energy   TOTEN  =      -115.88358320 eV

  energy  without entropy=     -115.80322034  energy(sigma->0) =     -115.84340177

 d Force = 0.7327820E-04[ 0.696E-04, 0.770E-04]  d Energy = 0.7304342E-04 0.235E-06
 d Force =-0.5485104E-01[-0.552E-01,-0.545E-01]  d Ewald  =-0.5485094E-01-0.949E-07


--------------------------------------------------------------------------------------------------------


    POTLOK:  cpu time    1.3297: real time    1.3363


--------------------------------------------------------------------------------------------------------


 NEB: the previous image is higher in energy: F
 NEB: the next image is higher in energy    : F
 NEB: image is at an extrema
 NEB: diff energy (min, max):     0.281836    0.303528

 NEB: Tangent
 ----------------------------------------------
     -0.02479     -0.00487     -0.00840
     -0.02468      0.00446      0.00857
     -0.01946     -0.00014      0.00016
     -0.03400     -0.00006     -0.00008
      0.01121      0.00013     -0.00012
     -0.07376      0.00019     -0.00011
     -0.06504     -0.05379     -0.04952
     -0.06526      0.05399      0.05006
     -0.04450     -0.01323      0.00908
     -0.04429      0.01440     -0.00974
     -0.04123     -0.00052     -0.00019
     -0.04556      0.00036      0.00044
     -0.02013     -0.00020      0.00026
     -0.01735      0.00017      0.00028
     -0.01644      0.00162      0.00173
     -0.01761     -0.00127     -0.00186
      0.93185     -0.00106     -0.00063
     -0.29234     -0.00043     -0.00030
     -0.09402      0.00023      0.00038

 NEB: forces: par spring, perp REAL, dneb     0.139145    0.019272    0.000000
 NEB: distance to prev, next image, angle between     0.562086    0.589915  160.155751
 NEB: projections on to tangent (spring, REAL)     0.139145   -0.000853

 stress matrix after NEB project (eV)
     -6.85973      0.00038     -0.01207
      0.00038     -1.00593      0.19956
     -0.01207      0.19956      1.13141
  FORCES: max atom, RMS     0.013869    0.004426
  FORCE total and by dimension    0.019291    0.010532
  Stress total and by dimension    7.030488    6.859726
 Quasi-Newton relaxation of ions (Broydens 2nd method)
  g(Force)  = 0.129E-03   g(Stress)= 0.000E+00

 retain information from N=  2 steps
 eigenvalues of (default step * inverse Hessian matrix)
  average eigenvalue of G=   7.2069
 eigenvalue spectrum of G is  7.2069  7.2069


--------------------------------------------------------------------------------------------------------


  
 reached required accuracy - stopping structural energy minimisation
     LOOP+:  cpu time  696.9315: real time  699.9598
    4ORBIT:  cpu time    0.0000: real time    0.0000



 total charge     

# of ion       s       p       d       f       tot
--------------------------------------------------
    1        2.183   6.372   0.944   0.043   9.542
    2        2.183   6.372   0.944   0.043   9.542
    3        2.184   6.373   0.940   0.044   9.540
    4        2.183   6.369   0.937   0.043   9.532
    5        2.202   6.398   1.000   0.046   9.646
    6        2.206   6.319   1.006   0.039   9.570
    7        2.187   6.336   0.947   0.040   9.509
    8        2.187   6.336   0.947   0.040   9.508
    9        0.864   1.380   0.000   0.000   2.244
   10        0.864   1.380   0.000   0.000   2.244
   11        0.865   1.380   0.000   0.000   2.245
   12        0.864   1.360   0.000   0.000   2.225
   13        1.509   2.832   0.020   0.000   4.361
   14        1.507   2.833   0.019   0.000   4.359
   15        1.508   2.832   0.019   0.000   4.358
   16        1.508   2.832   0.019   0.000   4.358
   17        1.512   2.805   0.015   0.000   4.332
   18        1.515   2.844   0.028   0.000   4.387
   19        1.504   2.822   0.013   0.000   4.339
--------------------------------------------------
tot         31.535  76.173   7.797   0.337 115.842




 magnetization (x)

# of ion       s       p       d       f       tot
--------------------------------------------------
    1        0.000   0.000   0.000   0.000   0.000
    2        0.000  -0.000   0.000   0.000   0.000
    3       -0.000   0.000   0.000   0.000   0.000
    4       -0.000   0.000   0.000   0.000   0.000
    5        0.000   0.000   0.000  -0.000   0.000
    6        0.000   0.000   0.000   0.000   0.000
    7        0.000   0.000  -0.000   0.000  -0.000
    8        0.000   0.000   0.000   0.000   0.000
    9        0.000   0.000   0.000   0.000   0.000
   10       -0.000  -0.000   0.000   0.000  -0.000
   11       -0.000  -0.000   0.000   0.000  -0.000
   12        0.000  -0.000   0.000   0.000  -0.000
   13       -0.000   0.000   0.000   0.000   0.000
   14       -0.000  -0.000  -0.000   0.000  -0.000
   15        0.000   0.000   0.000   0.000   0.000
   16       -0.000   0.000   0.000   0.000   0.000
   17        0.000   0.000  -0.000   0.000   0.000
   18        0.000   0.000   0.000   0.000   0.000
   19       -0.000   0.000  -0.000   0.000   0.000
--------------------------------------------------
tot         -0.000   0.000   0.000   0.000   0.000



 total amount of memory used by VASP MPI-rank0   265329. kBytes
=======================================================================

   base      :      30000. kBytes
   nonlr-proj:       9750. kBytes
   fftplans  :      25286. kBytes
   grid      :      66476. kBytes
   one-center:        420. kBytes
   wavefun   :     133397. kBytes

  
  
 General timing and accounting informations for this job:
 ========================================================
  
                  Total CPU time used (sec):    25476.857
                            User time (sec):    25297.446
                          System time (sec):      179.411
                         Elapsed time (sec):    25597.480
  
                   Maximum memory used (kb):      485100.
                   Average memory used (kb):           0.
  
                          Minor page faults:       733856
                          Major page faults:            0
                 Voluntary context switches:         5994
