       N       E                     dE             d eps       ncg     rms          rms(c)
DAV:   1     0.209376018629E+02    0.20938E+02   -0.40662E+03  8012   0.895E+02
DAV:   2    -0.740803942163E+01   -0.28346E+02   -0.26193E+02  7763   0.134E+02
DAV:   3    -0.814451072369E+01   -0.73647E+00   -0.73389E+00  8482   0.258E+01
DAV:   4    -0.814773082479E+01   -0.32201E-02   -0.32198E-02  8316   0.157E+00
DAV:   5    -0.814775459616E+01   -0.23771E-04   -0.23771E-04  8512   0.134E-01    0.389E-01
RMM:   6    -0.815650994533E+01   -0.87553E-02   -0.23487E-03  7568   0.642E-01    0.169E-01
RMM:   7    -0.815733033755E+01   -0.82039E-03   -0.11375E-04  7568   0.119E-01    0.118E-01
RMM:   8    -0.815740395866E+01   -0.73621E-04   -0.23180E-05  6686   0.508E-02    0.572E-02
RMM:   9    -0.815740989080E+01   -0.59321E-05   -0.28211E-06  5255   0.229E-02
   1 F= -.81574099E+01 E0= -.81574099E+01  d E =-.815741E+01  mag=     2.2230
       N       E                     dE             d eps       ncg     rms          rms(c)
DAV:   1    -0.815852171730E+01   -0.11178E-02   -0.36812E-02  9234   0.171E+00    0.231E-01
RMM:   2    -0.815782203427E+01    0.69968E-03   -0.48385E-04  7568   0.273E-01    0.151E-01
RMM:   3    -0.815771857272E+01    0.10346E-03   -0.75974E-05  7550   0.935E-02    0.109E-01
RMM:   4    -0.815768156122E+01    0.37012E-04   -0.16057E-05  6090   0.373E-02    0.299E-02
RMM:   5    -0.815767727772E+01    0.42835E-05   -0.29535E-06  5148   0.190E-02    0.571E-03
RMM:   6    -0.815767650415E+01    0.77356E-06   -0.83333E-07  4976   0.106E-02
   2 F= -.81576765E+01 E0= -.81576765E+01  d E =-.266613E-03  mag=     2.2244
       N       E                     dE             d eps       ncg     rms          rms(c)
DAV:   1    -0.815796586374E+01   -0.28859E-03   -0.10974E-02  9267   0.936E-01    0.128E-01
RMM:   2    -0.815775308202E+01    0.21278E-03   -0.14276E-04  7568   0.150E-01    0.831E-02
RMM:   3    -0.815772105251E+01    0.32030E-04   -0.22403E-05  6987   0.515E-02    0.608E-02
RMM:   4    -0.815770950874E+01    0.11544E-04   -0.52123E-06  5264   0.206E-02    0.176E-02
RMM:   5    -0.815770834679E+01    0.11620E-05   -0.84636E-07  4895   0.884E-03    0.290E-03
RMM:   6    -0.815770812445E+01    0.22234E-06   -0.17339E-07  4056   0.525E-03
   3 F= -.81577081E+01 E0= -.81577081E+01  d E =-.298234E-03  mag=     2.2257
       N       E                     dE             d eps       ncg     rms          rms(c)
DAV:   1    -0.815953923361E+01   -0.18309E-02   -0.44197E-02  9252   0.273E+00    0.385E-01
RMM:   2    -0.815800865350E+01    0.15306E-02   -0.22027E-03  7568   0.617E-01    0.336E-01
RMM:   3    -0.815784620877E+01    0.16244E-03   -0.15687E-04  7562   0.158E-01    0.135E-01
RMM:   4    -0.815780748998E+01    0.38719E-04   -0.15283E-05  5863   0.467E-02    0.349E-02
RMM:   5    -0.815779088113E+01    0.16609E-04   -0.78578E-06  5398   0.257E-02    0.645E-03
RMM:   6    -0.815779038766E+01    0.49347E-06   -0.10208E-06  5156   0.108E-02
   4 F= -.81577904E+01 E0= -.81577904E+01  d E =-.822632E-04  mag=     2.2203
       N       E                     dE             d eps       ncg     rms          rms(c)
DAV:   1    -0.815795415623E+01   -0.16328E-03   -0.37055E-03  9117   0.795E-01    0.113E-01
RMM:   2    -0.815782282341E+01    0.13133E-03   -0.18658E-04  7567   0.180E-01    0.996E-02
RMM:   3    -0.815780971438E+01    0.13109E-04   -0.12451E-05  6336   0.459E-02    0.401E-02
RMM:   4    -0.815780609588E+01    0.36185E-05   -0.14550E-06  5206   0.117E-02    0.102E-02
RMM:   5    -0.815780456233E+01    0.15335E-05   -0.61004E-07  4682   0.677E-03    0.182E-03
RMM:   6    -0.815780455997E+01    0.23664E-08   -0.21312E-08  2419   0.269E-03
   5 F= -.81578046E+01 E0= -.81578046E+01  d E =-.964355E-04  mag=     2.2218
