 vasp.5.4.4.18Apr17-6-g9f103f2a35 (build Feb  5 2022 00:56:52) complex           
 executed on             LinuxGNU date 2022.02.08  03:19:48
 running on   21 total cores
 each image running on    3 cores
 distrk:  each k-point on    3 cores,    1 groups
 distr:  one band on NCORES_PER_BAND=   3 cores,    1 groups


--------------------------------------------------------------------------------------------------------


 INCAR:
 POTCAR:    PAW_PBE Y_sv 25May2007                
 POTCAR:    PAW_PBE C 08Apr2002                   
 POTCAR:    PAW_PBE I 08Apr2002                   
 POTCAR:    PAW_PBE Y_sv 25May2007                
   VRHFIN =Y: 4s4p5s4d                                                          
   LEXCH  = PE                                                                  
   EATOM  =  1046.9140 eV,   76.9460 Ry                                         
                                                                                
   TITEL  = PAW_PBE Y_sv 25May2007                                              
   LULTRA =        F    use ultrasoft PP ?                                      
   IUNSCR =        1    unscreen: 0-lin 1-nonlin 2-no                           
   RPACOR =    2.200    partial core radius                                     
   POMASS =   88.906; ZVAL   =   11.000    mass and valenz                      
   RCORE  =    2.800    outmost cutoff radius                                   
   RWIGS  =    3.430; RWIGS  =    1.815    wigner-seitz radius (au A)           
   ENMAX  =  202.626; ENMIN  =  151.970 eV                                      
   RCLOC  =    2.212    cutoff for local pot                                    
   LCOR   =        T    correct aug charges                                     
   LPAW   =        T    paw PP                                                  
   EAUG   =  470.889                                                            
   DEXC   =    0.000                                                            
   RMAX   =    2.863    core radius for proj-oper                               
   RAUG   =    1.300    factor for augmentation sphere                          
   RDEP   =    2.926    radius for radial grids                                 
   RDEPT  =    2.280    core radius for aug-charge                              
                                                                                
   Atomic configuration                                                         
   11 entries                                                                   
     n  l   j            E        occ.                                          
     1  0  0.50    -16863.0720   2.0000                                         
     2  0  0.50     -2309.2881   2.0000                                         
     2  1  1.50     -2055.5536   6.0000                                         
     3  0  0.50      -367.1837   2.0000                                         
     3  1  1.50      -284.8912   6.0000                                         
     3  2  2.50      -149.4324  10.0000                                         
     4  0  0.50       -46.3345   2.0000                                         
     5  0  0.50        -3.6387   1.0000                                         
     4  1  1.50       -26.3769   6.0000                                         
     4  2  2.50        -1.6291   2.0000                                         
     4  3  2.50        -1.3606   0.0000                                         
   Description                                                                  
     l       E           TYP  RCUT    TYP  RCUT                                 
     0    -46.3344714     23  2.600                                             
     0     -3.6387002     23  2.700                                             
     1    -26.3769044     23  2.600                                             
     1    -27.7374870     23  2.600                                             
     2     -1.6291019     23  2.600                                             
     2      0.1354037     23  2.600                                             
     3     -1.3605826     23  2.800                                             
  local pseudopotential read in
  partial core-charges read in
  partial kinetic energy density read in
  atomic valenz-charges read in
  non local Contribution for L=           0  read in
    real space projection operators read in
  non local Contribution for L=           0  read in
    real space projection operators read in
  non local Contribution for L=           1  read in
    real space projection operators read in
  non local Contribution for L=           1  read in
    real space projection operators read in
  non local Contribution for L=           2  read in
    real space projection operators read in
  non local Contribution for L=           2  read in
    real space projection operators read in
  non local Contribution for L=           3  read in
    real space projection operators read in
    PAW grid and wavefunctions read in

   number of l-projection  operators is LMAX  =           7
   number of lm-projection operators is LMMAX =          25

 POTCAR:    PAW_PBE C 08Apr2002                   
   VRHFIN =C: s2p2                                                              
   LEXCH  = PE                                                                  
   EATOM  =   147.1560 eV,   10.8157 Ry                                         
                                                                                
   TITEL  = PAW_PBE C 08Apr2002                                                 
   LULTRA =        F    use ultrasoft PP ?                                      
   IUNSCR =        1    unscreen: 0-lin 1-nonlin 2-no                           
   RPACOR =    1.200    partial core radius                                     
   POMASS =   12.011; ZVAL   =    4.000    mass and valenz                      
   RCORE  =    1.500    outmost cutoff radius                                   
   RWIGS  =    1.630; RWIGS  =    0.863    wigner-seitz radius (au A)           
   ENMAX  =  400.000; ENMIN  =  300.000 eV                                      
   ICORE  =        2    local potential                                         
   LCOR   =        T    correct aug charges                                     
   LPAW   =        T    paw PP                                                  
   EAUG   =  644.873                                                            
   DEXC   =    0.000                                                            
   RMAX   =    1.529    core radius for proj-oper                               
   RAUG   =    1.300    factor for augmentation sphere                          
   RDEP   =    1.501    radius for radial grids                                 
   RDEPT  =    1.300    core radius for aug-charge                              
                                                                                
   Atomic configuration                                                         
    4 entries                                                                   
     n  l   j            E        occ.                                          
     1  0  0.50      -273.3789   2.0000                                         
     2  0  0.50       -13.7508   2.0000                                         
     2  1  0.50        -5.2854   2.0000                                         
     3  2  1.50        -5.4423   0.0000                                         
   Description                                                                  
     l       E           TYP  RCUT    TYP  RCUT                                 
     0    -13.7508458     23  1.200                                             
     0     -8.2022199     23  1.200                                             
     1     -5.2854383     23  1.500                                             
     1     34.0145650     23  1.500                                             
     2     -5.4423304      7  1.500                                             
  local pseudopotential read in
  partial core-charges read in
  partial kinetic energy density read in
  atomic valenz-charges read in
  non local Contribution for L=           0  read in
    real space projection operators read in
  non local Contribution for L=           0  read in
    real space projection operators read in
  non local Contribution for L=           1  read in
    real space projection operators read in
  non local Contribution for L=           1  read in
    real space projection operators read in
    PAW grid and wavefunctions read in

   number of l-projection  operators is LMAX  =           4
   number of lm-projection operators is LMMAX =           8

 POTCAR:    PAW_PBE I 08Apr2002                   
   VRHFIN =I : s2p5                                                             
   LEXCH  = PE                                                                  
   EATOM  =   315.8678 eV,   23.2156 Ry                                         
                                                                                
   TITEL  = PAW_PBE I 08Apr2002                                                 
   LULTRA =        F    use ultrasoft PP ?                                      
   IUNSCR =        1    unscreen: 0-lin 1-nonlin 2-no                           
   RPACOR =    2.200    partial core radius                                     
   POMASS =  126.904; ZVAL   =    7.000    mass and valenz                      
   RCORE  =    2.300    outmost cutoff radius                                   
   RWIGS  =    2.810; RWIGS  =    1.487    wigner-seitz radius (au A)           
   ENMAX  =  175.647; ENMIN  =  131.735 eV                                      
   ICORE  =        3    local potential                                         
   LCOR   =        T    correct aug charges                                     
   LPAW   =        T    paw PP                                                  
   EAUG   =  370.139                                                            
   DEXC   =    0.000                                                            
   RMAX   =    2.359    core radius for proj-oper                               
   RAUG   =    1.300    factor for augmentation sphere                          
   RDEP   =    2.392    radius for radial grids                                 
   RDEPT  =    2.170    core radius for aug-charge                              
                                                                                
   Atomic configuration                                                         
   13 entries                                                                   
     n  l   j            E        occ.                                          
     1  0  0.50    -32976.3739   2.0000                                         
     2  0  0.50     -5094.5933   2.0000                                         
     2  1  1.50     -4572.0131   6.0000                                         
     3  0  0.50     -1028.2813   2.0000                                         
     3  1  1.50      -859.0250   6.0000                                         
     3  2  2.50      -605.7620  10.0000                                         
     4  0  0.50      -180.5540   2.0000                                         
     4  1  1.50      -127.5306   6.0000                                         
     4  2  2.50       -50.2720  10.0000                                         
     5  0  0.50       -17.4058   2.0000                                         
     5  1  0.50        -7.0851   5.0000                                         
     5  2  1.50        -7.0750   0.0000                                         
     4  3  2.50        -7.0750   0.0000                                         
   Description                                                                  
     l       E           TYP  RCUT    TYP  RCUT                                 
     0    -17.4058016     23  2.300                                             
     0    -18.7663842     23  2.300                                             
     1     -7.0850686     23  2.300                                             
     1     -4.2150896     23  2.300                                             
     2     -7.0750295     23  2.300                                             
     3     -1.3605826     23  2.300                                             
  local pseudopotential read in
  partial core-charges read in
  partial kinetic energy density read in
  atomic valenz-charges read in
  non local Contribution for L=           0  read in
    real space projection operators read in
  non local Contribution for L=           0  read in
    real space projection operators read in
  non local Contribution for L=           1  read in
    real space projection operators read in
  non local Contribution for L=           1  read in
    real space projection operators read in
  non local Contribution for L=           2  read in
    real space projection operators read in
    PAW grid and wavefunctions read in

   number of l-projection  operators is LMAX  =           5
   number of lm-projection operators is LMMAX =          13

 Optimization of the real space projectors (new method)

 maximal supplied QI-value         = 13.42
 optimisation between [QCUT,QGAM] = [ 11.67, 23.35] = [ 38.16,152.62] Ry 
 Optimized for a Real-space Cutoff    1.68 Angstroem

   l    n(q)    QCUT    max X(q) W(low)/X(q) W(high)/X(q)  e(spline) 
   0     12    11.673    14.902    0.22E-04    0.24E-05    0.52E-07
   0     12    11.673     9.294    0.34E-04    0.58E-05    0.89E-07
   1     11    11.673    69.520    0.10E-04    0.47E-04    0.49E-06
   1     11    11.673    72.085    0.10E-04    0.48E-04    0.50E-06
   2     11    11.673    62.934    0.94E-04    0.14E-04    0.82E-06
   2     11    11.673    49.749    0.91E-04    0.13E-04    0.79E-06
   3     10    11.673     8.311    0.92E-04    0.21E-04    0.59E-06
 Optimization of the real space projectors (new method)

 maximal supplied QI-value         = 25.13
 optimisation between [QCUT,QGAM] = [ 11.56, 23.12] = [ 37.43,149.72] Ry 
 Optimized for a Real-space Cutoff    1.04 Angstroem

   l    n(q)    QCUT    max X(q) W(low)/X(q) W(high)/X(q)  e(spline) 
   0      7    11.561   115.676    0.20E-03    0.60E-03    0.21E-06
   0      7    11.561    87.132    0.20E-03    0.59E-03    0.21E-06
   1      7    11.561     4.429    0.23E-03    0.35E-03    0.15E-06
   1      7    11.561     2.733    0.18E-03    0.25E-03    0.12E-06
 Optimization of the real space projectors (new method)

 maximal supplied QI-value         = 16.25
 optimisation between [QCUT,QGAM] = [ 11.54, 23.24] = [ 37.28,151.24] Ry 
 Optimized for a Real-space Cutoff    1.40 Angstroem

   l    n(q)    QCUT    max X(q) W(low)/X(q) W(high)/X(q)  e(spline) 
   0     10    11.539   194.483    0.48E-04    0.89E-04    0.13E-06
   0     10    11.539   190.334    0.47E-04    0.86E-04    0.12E-06
   1      9    11.539   116.687    0.15E-03    0.73E-04    0.13E-06
   1      9    11.539    88.696    0.15E-03    0.72E-04    0.13E-06
   2      9    11.539     4.877    0.99E-05    0.58E-04    0.56E-07
  PAW_PBE Y_sv 25May2007                :
 energy of atom  1       EATOM=-1046.9140
 kinetic energy error for atom=    0.0008 (will be added to EATOM!!)
  PAW_PBE C 08Apr2002                   :
 energy of atom  2       EATOM= -147.1560
 kinetic energy error for atom=    0.0071 (will be added to EATOM!!)
  PAW_PBE I 08Apr2002                   :
 energy of atom  3       EATOM= -315.8678
 kinetic energy error for atom=    0.0009 (will be added to EATOM!!)


 POSCAR: Y8 C4 I7                                
  positions in direct lattice
  No initial velocities read in
 exchange correlation table for  LEXCH =        8
   RHO(1)=    0.500       N(1)  =     2000
   RHO(2)=  100.500       N(2)  =     4000

 VTST: version 3.2, (02/03/18)

 CHAIN: initializing optimizer
 
 OPT: Using VASP QUASI-newton optimizer
 CHAIN: Read ICHAIN            0
 CHAIN: Running the NEB
 NEB:          SPRING     -5.000000
 NEB:          LCLIMB      T
 NEB:     LTANGENTOLD      F
 NEB:           LDNEB      F
 NEB:        LDNEBORG      F
 NEB:        LNEBCELL      F
 NEB:          EFIRST      0.000000
 NEB:           ELAST      0.000000

 POSCAR: Y8 C4 I7                                
  positions in direct lattice
  No initial velocities read in

 POSCAR: Y8 C4 I7                                
  positions in direct lattice
  No initial velocities read in



--------------------------------------------------------------------------------------------------------


 ion  position               nearest neighbor table
   1  0.001  0.335  0.120-   9 2.61  12 2.61  11 2.62  16 3.09  13 3.10  14 3.10   5 3.38   6 3.40
                             8 3.44   2 3.84   4 3.86   3 3.88   4 3.90   3 3.92   2 3.93
   2  0.507  0.336  0.117-  11 2.60  10 2.61  12 2.61  15 3.12  14 3.12  13 3.13   5 3.37   7 3.43
                             6 3.52   1 3.84   4 3.85   3 3.87   4 3.89   3 3.92   1 3.93
   3  0.255  0.831  0.121-  11 2.61   9 2.64  10 2.68  13 3.07  15 3.08  16 3.10   5 3.29   7 3.40
                             8 3.42   4 3.87   2 3.87   1 3.88   4 3.90   2 3.92   1 3.92
   4  0.753  0.832  0.120-  10 2.59   9 2.61  12 2.65  16 3.08  15 3.09  14 3.13   7 3.38   8 3.41
                             6 3.50   2 3.85   1 3.86   3 3.87   2 3.89   1 3.90   3 3.90
   5  0.252  0.153  0.898-   9 2.48  10 2.51  11 2.59  17 2.94  18 3.25   3 3.29   2 3.37   1 3.38
                             6 3.73   7 3.76   8 3.77   8 3.99   7 4.04   6 4.05
   6  0.772  0.168  0.880-   9 2.50  12 2.55  10 2.65  19 3.07   1 3.40   4 3.50   2 3.52   5 3.73
                            17 3.74   8 3.80   8 3.83   7 3.90   7 4.00   5 4.05
   7  0.506  0.677  0.888-  10 2.50  12 2.57  11 2.61  18 3.07  19 3.17   4 3.38   3 3.40   2 3.43
                             5 3.76   8 3.87   6 3.90   8 3.90   6 4.00   5 4.04
   8  0.004  0.672  0.887-  12 2.54   9 2.56  11 2.59  18 3.13  19 3.18   4 3.41   3 3.42   1 3.44
                            17 3.45   5 3.77   6 3.80   6 3.83   7 3.87   7 3.90   5 3.99
   9  0.002  0.002  0.001-   5 2.48   6 2.50   8 2.56   4 2.61   1 2.61   3 2.64
  10  0.511  0.002  0.997-   7 2.50   5 2.51   4 2.59   2 2.61   6 2.65   3 2.68
  11  0.254  0.499  0.999-   5 2.59   8 2.59   2 2.60   7 2.61   3 2.61   1 2.62
  12  0.757  0.498  0.993-   8 2.54   6 2.55   7 2.57   1 2.61   2 2.61   4 2.65
  13  0.254  0.166  0.310-   3 3.07   1 3.10   2 3.13
  14  0.753  0.168  0.314-   1 3.10   2 3.12   4 3.13
  15  0.504  0.667  0.312-   3 3.08   4 3.09   2 3.12
  16  0.000  0.668  0.312-   4 3.08   1 3.09   3 3.10
  17  0.125  0.329  0.672-   5 2.94  18 3.45   8 3.45   6 3.74
  18  0.260  0.816  0.688-   7 3.07   8 3.13   5 3.25  17 3.45
  19  0.754  0.846  0.685-   6 3.07   7 3.17   8 3.18


IMPORTANT INFORMATION: All symmetrisations will be switched off!
NOSYMM: (Re-)initialisation of all symmetry stuff for point group C_1.




Automatic generation of k-mesh.
 generate k-points for:    2    2    2
Space group operators:
 irot       det(A)        alpha          n_x          n_y          n_z        tau_x        tau_y        tau_z
    1     1.000000     0.000000     1.000000     0.000000     0.000000     0.000000     0.000000     0.000000
 
 Subroutine IBZKPT returns following result:
 ===========================================
 
 Found      8 irreducible k-points:
 
 Following reciprocal coordinates:
            Coordinates               Weight
  0.000000  0.000000  0.000000      1.000000
  0.500000  0.000000  0.000000      1.000000
  0.000000  0.500000  0.000000      1.000000
  0.500000  0.500000  0.000000      1.000000
  0.000000  0.000000  0.500000      1.000000
  0.500000  0.000000  0.500000      1.000000
  0.000000  0.500000  0.500000      1.000000
  0.500000  0.500000  0.500000      1.000000
 
 Following cartesian coordinates:
            Coordinates               Weight
  0.000000  0.000000  0.000000      1.000000
  0.064345 -0.000000  0.000000      1.000000
 -0.000000  0.074299  0.000000      1.000000
  0.064345  0.074299  0.000000      1.000000
  0.000000  0.000000  0.045047      1.000000
  0.064345 -0.000000  0.045047      1.000000
 -0.000000  0.074299  0.045047      1.000000
  0.064345  0.074299  0.045047      1.000000
 


--------------------------------------------------------------------------------------------------------




 Dimension of arrays:
   k-points           NKPTS =      8   k-points in BZ     NKDIM =      8   number of bands    NBANDS=     97
   number of dos      NEDOS =    301   number of ions     NIONS =     19
   non local maximal  LDIM  =      7   non local SUM 2l+1 LMDIM =     25
   total plane-waves  NPLWV = 252000
   max r-space proj   IRMAX =   8612   max aug-charges    IRDMAX=  31495
   dimension x,y,z NGX =    60 NGY =   50 NGZ =   84
   dimension x,y,z NGXF=   120 NGYF=  100 NGZF=  168
   support grid    NGXF=   120 NGYF=  100 NGZF=  168
   ions per type =               8   4   7
   NGX,Y,Z   is equivalent  to a cutoff of  12.84, 12.35, 12.58 a.u.
   NGXF,Y,Z  is equivalent  to a cutoff of  25.67, 24.70, 25.16 a.u.

 SYSTEM =  unknown system                          
 POSCAR =  Y8 C4 I7                                

 Startparameter for this run:
   NWRITE =      2    write-flag & timer
   PREC   = accura    normal or accurate (medium, high low for compatibility)
   ISTART =      0    job   : 0-new  1-cont  2-samecut
   ICHARG =      1    charge: 1-file 2-atom 10-const
   ISPIN  =      2    spin polarized calculation?
   LNONCOLLINEAR =      F non collinear calculations
   LSORBIT =      F    spin-orbit coupling
   INIWAV =      1    electr: 0-lowe 1-rand  2-diag
   LASPH  =      F    aspherical Exc in radial PAW
   METAGGA=      F    non-selfconsistent MetaGGA calc.

 Electronic Relaxation 1
   ENCUT  =  520.0 eV  38.22 Ry    6.18 a.u.  14.45 12.51 20.64*2*pi/ulx,y,z
   ENINI  =  520.0     initial cutoff
   ENAUG  =  644.9 eV  augmentation charge cutoff
   NELM   =    200;   NELMIN=  4; NELMDL= -5     # of ELM steps 
   EDIFF  = 0.1E-04   stopping-criterion for ELM
   LREAL  =      T    real-space projection
   NLSPLINE    = F    spline interpolate recip. space projectors
   LCOMPAT=      F    compatible to vasp.4.4
   GGA_COMPAT  = T    GGA compatible to vasp.4.4-vasp.4.6
   LMAXPAW     = -100 max onsite density
   LMAXMIX     =    2 max onsite mixed and CHGCAR
   VOSKOWN=      0    Vosko Wilk Nusair interpolation
   ROPT   =   -0.00025  -0.00025  -0.00025
 Ionic relaxation
   EDIFFG = -.2E-01   stopping-criterion for IOM
   NSW    =     99    number of steps for IOM
   NBLOCK =      1;   KBLOCK =     99    inner block; outer block 
   IBRION =      1    ionic relax: 0-MD 1-quasi-New 2-CG
   NFREE  =      0    steps in history (QN), initial steepest desc. (CG)
   ISIF   =      2    stress and relaxation
   IWAVPR =     11    prediction:  0-non 1-charg 2-wave 3-comb
   ISYM   =      0    0-nonsym 1-usesym 2-fastsym
   LCORR  =      T    Harris-Foulkes like correction to forces

   POTIM  = 0.5000    time-step for ionic-motion
   TEIN   =    0.0    initial temperature
   TEBEG  =    0.0;   TEEND  =   0.0 temperature during run
   SMASS  =  -3.00    Nose mass-parameter (am)
   estimated Nose-frequenzy (Omega)   =  0.10E-29 period in steps =****** mass=  -0.138E-26a.u.
   SCALEE = 1.0000    scale energy and forces
   NPACO  =    256;   APACO  = 16.0  distance and # of slots for P.C.
   PSTRESS=    0.0 pullay stress

  Mass of Ions in am
   POMASS =  88.91 12.01126.90
  Ionic Valenz
   ZVAL   =  11.00  4.00  7.00
  Atomic Wigner-Seitz radii
   RWIGS  =  -1.00 -1.00 -1.00
  virtual crystal weights 
   VCA    =   1.00  1.00  1.00
   NELECT =     153.0000    total number of electrons
   NUPDOWN=      -1.0000    fix difference up-down

 DOS related values:
   EMIN   =  10.00;   EMAX   =-10.00  energy-range for DOS
   EFERMI =   0.00
   ISMEAR =     0;   SIGMA  =   0.20  broadening in eV -4-tet -1-fermi 0-gaus

 Electronic relaxation 2 (details)
   IALGO  =     38    algorithm
   LDIAG  =      T    sub-space diagonalisation (order eigenvalues)
   LSUBROT=      F    optimize rotation matrix (better conditioning)
   TURBO    =      0    0=normal 1=particle mesh
   IRESTART =      0    0=no restart 2=restart with 2 vectors
   NREBOOT  =      0    no. of reboots
   NMIN     =      0    reboot dimension
   EREF     =   0.00    reference energy to select bands
   IMIX   =      4    mixing-type and parameters
     AMIX     =   0.40;   BMIX     =  1.00
     AMIX_MAG =   1.60;   BMIX_MAG =  1.00
     AMIN     =   0.10
     WC   =   100.;   INIMIX=   1;  MIXPRE=   1;  MAXMIX= -45

 Intra band minimization:
   WEIMIN = 0.0010     energy-eigenvalue tresh-hold
   EBREAK =  0.26E-07  absolut break condition
   DEPER  =   0.30     relativ break condition  

   TIME   =   0.40     timestep for ELM

  volume/ion in A,a.u.               =      30.55       206.16
  Fermi-wavevector in a.u.,A,eV,Ry     =   1.049675  1.983598 14.991144  1.101818
  Thomas-Fermi vector in A             =   2.184647

 Write flags
   LWAVE        =      F    write WAVECAR
   LDOWNSAMPLE  =      F    k-point downsampling of WAVECAR
   LCHARG       =      T    write CHGCAR
   LVTOT        =      F    write LOCPOT, total local potential
   LVHAR        =      F    write LOCPOT, Hartree potential only
   LELF         =      F    write electronic localiz. function (ELF)
   LORBIT       =     11    0 simple, 1 ext, 2 COOP (PROOUT), +10 PAW based schemes


 Dipole corrections
   LMONO  =      F    monopole corrections only (constant potential shift)
   LDIPOL =      F    correct potential (dipole corrections)
   IDIPOL =      0    1-x, 2-y, 3-z, 4-all directions 
   EPSILON=  1.0000000 bulk dielectric constant

 Exchange correlation treatment:
   GGA     =    --    GGA type
   LEXCH   =     8    internal setting for exchange type
   VOSKOWN=      0    Vosko Wilk Nusair interpolation
   LHFCALC =     F    Hartree Fock is set to
   LHFONE  =     F    Hartree Fock one center treatment
   AEXX    =    0.0000 exact exchange contribution

 Linear response parameters
   LEPSILON=     F    determine dielectric tensor
   LRPA    =     F    only Hartree local field effects (RPA)
   LNABLA  =     F    use nabla operator in PAW spheres
   LVEL    =     F    velocity operator in full k-point grid
   LINTERFAST=   F  fast interpolation
   KINTER  =     0    interpolate to denser k-point grid
   CSHIFT  =0.1000    complex shift for real part using Kramers Kronig
   OMEGAMAX=  -1.0    maximum frequency
   DEG_THRESHOLD= 0.2000000E-02 threshold for treating states as degnerate
   RTIME   =   -0.100 relaxation time in fs
  (WPLASMAI=    0.000 imaginary part of plasma frequency in eV, 0.658/RTIME)
   DFIELD  = 0.0000000 0.0000000 0.0000000 field for delta impulse in time

 Orbital magnetization related:
   ORBITALMAG=     F  switch on orbital magnetization
   LCHIMAG   =     F  perturbation theory with respect to B field
   DQ        =  0.001000  dq finite difference perturbation B field
   LLRAUG    =     F  two centre corrections for induced B field



--------------------------------------------------------------------------------------------------------


 quasi-Newton-method for relaxation of ions
 charge density and potential will be updated during run
 spin polarized calculation
 Variant of blocked Davidson
 Davidson routine will perform the subspace rotation
 perform sub-space diagonalisation
    after iterative eigenvector-optimisation
 modified Broyden-mixing scheme, WC =      100.0
 initial mixing is a Kerker type mixing with AMIX =  0.4000 and BMIX =      1.0000
 Hartree-type preconditioning will be used
 using additional bands           20
 real space projection scheme for non local part
 use partial core corrections
 calculate Harris-corrections to forces   (improved forces if not selfconsistent)
 use gradient corrections 
 use of overlap-Matrix (Vanderbilt PP)
 Gauss-broadening in eV      SIGMA  =   0.20


--------------------------------------------------------------------------------------------------------


  energy-cutoff  :      520.00
  volume of cell :      580.43
      direct lattice vectors                 reciprocal lattice vectors
     7.770644000  0.000004000  0.000000000     0.128689463 -0.000000038  0.000000012
     0.000002000  6.729576000  0.000000000    -0.000000076  0.148597772  0.000000013
    -0.000001000 -0.000001000 11.099577000     0.000000000  0.000000000  0.090093523

  length of vectors
     7.770644000  6.729576000 11.099577000     0.128689463  0.148597772  0.090093523



 k-points in units of 2pi/SCALE and weight: read from INCAR                         
   0.00000000  0.00000000  0.00000000       0.125
   0.06434473 -0.00000002  0.00000001       0.125
  -0.00000004  0.07429889  0.00000001       0.125
   0.06434469  0.07429887  0.00000001       0.125
   0.00000000  0.00000000  0.04504676       0.125
   0.06434473 -0.00000002  0.04504677       0.125
  -0.00000004  0.07429889  0.04504677       0.125
   0.06434469  0.07429887  0.04504677       0.125

 k-points in reciprocal lattice and weights: read from INCAR                         
   0.00000000  0.00000000  0.00000000       0.125
   0.50000000  0.00000000  0.00000000       0.125
   0.00000000  0.50000000  0.00000000       0.125
   0.50000000  0.50000000  0.00000000       0.125
   0.00000000  0.00000000  0.50000000       0.125
   0.50000000  0.00000000  0.50000000       0.125
   0.00000000  0.50000000  0.50000000       0.125
   0.50000000  0.50000000  0.50000000       0.125

 position of ions in fractional coordinates (direct lattice) 
   0.00139200  0.33542100  0.12023600
   0.50744200  0.33568700  0.11652700
   0.25506400  0.83140100  0.12100200
   0.75277100  0.83206900  0.11971700
   0.25186800  0.15300200  0.89766300
   0.77224300  0.16849500  0.88009400
   0.50565000  0.67731100  0.88765000
   0.00350300  0.67165100  0.88690400
   0.00173600  0.00187900  0.00093000
   0.51122300  0.00247700  0.99681400
   0.25397300  0.49888400  0.99939700
   0.75662700  0.49810000  0.99315700
   0.25433700  0.16576500  0.30959600
   0.75280600  0.16810500  0.31404400
   0.50382600  0.66719600  0.31238900
   0.00034700  0.66833600  0.31238000
   0.12456400  0.32861600  0.67159800
   0.26032100  0.81640200  0.68757800
   0.75441900  0.84587300  0.68512000

 position of ions in cartesian coordinates  (Angst):
   0.01081729  2.25724100  1.33456874
   3.94315169  2.25903309  1.29340041
   1.98201308  5.59497712  1.34307102
   5.84951700  5.59947446  1.32880806
   1.95717597  1.02963870  9.96367959
   6.00082489  1.13390212  9.76867112
   3.92922661  4.55801699  9.85253952
   0.02722102  4.51992558  9.84425924
   0.01348984  0.01264488  0.01032261
   3.97253095  0.01667021 11.06421375
   1.97353377  3.35727781 11.09288396
   5.87947906  3.35200384 11.02362259
   1.97636230  1.11552887  3.43638464
   5.84978745  1.13127807  3.48575556
   3.91505351  4.48994789  3.46738576
   0.00269744  4.49761759  3.46728586
   0.96794248  2.21144617  7.45445371
   2.02286276  5.49403966  7.63182495
   5.86232248  5.69236897  7.60454219



--------------------------------------------------------------------------------------------------------


 k-point  1 :   0.0000 0.0000 0.0000  plane waves:   15669
 k-point  2 :   0.5000 0.0000 0.0000  plane waves:   15660
 k-point  3 :   0.0000 0.5000 0.0000  plane waves:   15674
 k-point  4 :   0.5000 0.5000 0.0000  plane waves:   15604
 k-point  5 :   0.0000 0.0000 0.5000  plane waves:   15634
 k-point  6 :   0.5000 0.0000 0.5000  plane waves:   15620
 k-point  7 :   0.0000 0.5000 0.5000  plane waves:   15576
 k-point  8 :   0.5000 0.5000 0.5000  plane waves:   15592

 maximum and minimum number of plane-waves per node :      5250     5163

 maximum number of plane-waves:     15674
 maximum index in each direction: 
   IXMAX=   14   IYMAX=   12   IZMAX=   20
   IXMIN=  -14   IYMIN=  -13   IZMIN=  -21


 real space projection operators:
  total allocation   :      16953.97 KBytes
  max/ min on nodes  :       5670.96       5635.62


 parallel 3D FFT for wavefunctions:
    minimum data exchange during FFTs selected (reduces bandwidth)
 parallel 3D FFT for charge:
    minimum data exchange during FFTs selected (reduces bandwidth)


 total amount of memory used by VASP MPI-rank0   265329. kBytes
=======================================================================

   base      :      30000. kBytes
   nonlr-proj:       9750. kBytes
   fftplans  :      25286. kBytes
   grid      :      66476. kBytes
   one-center:        420. kBytes
   wavefun   :     133397. kBytes

     INWAV:  cpu time    0.0000: real time    0.0000
 Broyden mixing: mesh for mixing (old mesh)
   NGX = 29   NGY = 25   NGZ = 41
  (NGX  =120   NGY  =100   NGZ  =168)
  gives a total of  29725 points

 initial charge density was supplied:
 charge density of overlapping atoms calculated
 number of electron     153.0000000 magnetization      11.4000000
 keeping initial charge density in first step


--------------------------------------------------------------------------------------------------------


 Maximum index for non-local projection operator         2785
 Maximum index for augmentation-charges        10155 (set IRDMAX)


--------------------------------------------------------------------------------------------------------


 First call to EWALD:  gamma=   0.212
 Maximum number of real-space cells 3x 3x 2
 Maximum number of reciprocal cells 3x 2x 3

    FEWALD:  cpu time    0.0028: real time    0.0028


--------------------------------------- Iteration      1(   1)  ---------------------------------------


    POTLOK:  cpu time    1.9873: real time    2.0023
    SETDIJ:  cpu time    0.1862: real time    0.1876
     EDDAV:  cpu time   65.6464: real time   66.1492
       DOS:  cpu time    0.0043: real time    0.0043
    --------------------------------------------
      LOOP:  cpu time   67.8242: real time   68.3434

 eigenvalue-minimisations  :  3104
 total energy-change (2. order) : 0.1044735E+04  (-0.6856807E+04)
 number of electron     153.0000000 magnetization      11.4000000
 augmentation part      153.0000000 magnetization      11.4000000

 Free energy of the ion-electron system (eV)
  ---------------------------------------------------
  alpha Z        PSCENC =       490.14769152
  Ewald energy   TEWEN  =     -5503.00952914
  -Hartree energ DENC   =     -5182.27913944
  -exchange      EXHF   =         0.00000000
  -V(xc)+E(xc)   XCENC  =       295.77134584
  PAW double counting   =      8755.10086986    -8465.77839650
  entropy T*S    EENTRO =        -0.14295029
  eigenvalues    EBANDS =      -520.04462898
  atomic energy  EATOM  =     11174.96942390
  Solvation  Ediel_sol  =         0.00000000
  ---------------------------------------------------
  free energy    TOTEN  =      1044.73468678 eV

  energy without entropy =     1044.87763706  energy(sigma->0) =     1044.80616192


--------------------------------------------------------------------------------------------------------




--------------------------------------- Iteration      1(   2)  ---------------------------------------


     EDDAV:  cpu time   79.0413: real time   79.6526
       DOS:  cpu time    0.0055: real time    0.0055
    --------------------------------------------
      LOOP:  cpu time   79.0468: real time   79.6580

 eigenvalue-minimisations  :  3681
 total energy-change (2. order) :-0.1055834E+04  (-0.1013379E+04)
 number of electron     153.0000000 magnetization      11.4000000
 augmentation part      153.0000000 magnetization      11.4000000

 Free energy of the ion-electron system (eV)
  ---------------------------------------------------
  alpha Z        PSCENC =       490.14769152
  Ewald energy   TEWEN  =     -5503.00952914
  -Hartree energ DENC   =     -5182.27913944
  -exchange      EXHF   =         0.00000000
  -V(xc)+E(xc)   XCENC  =       295.77134584
  PAW double counting   =      8755.10086986    -8465.77839650
  entropy T*S    EENTRO =        -0.10269888
  eigenvalues    EBANDS =     -1575.91851328
  atomic energy  EATOM  =     11174.96942390
  Solvation  Ediel_sol  =         0.00000000
  ---------------------------------------------------
  free energy    TOTEN  =       -11.09894612 eV

  energy without entropy =      -10.99624723  energy(sigma->0) =      -11.04759668


--------------------------------------------------------------------------------------------------------




--------------------------------------- Iteration      1(   3)  ---------------------------------------


     EDDAV:  cpu time   90.2145: real time   90.9027
       DOS:  cpu time    0.0046: real time    0.0047
    --------------------------------------------
      LOOP:  cpu time   90.2190: real time   90.9073

 eigenvalue-minimisations  :  4282
 total energy-change (2. order) :-0.1146825E+03  (-0.1129155E+03)
 number of electron     153.0000000 magnetization      11.4000000
 augmentation part      153.0000000 magnetization      11.4000000

 Free energy of the ion-electron system (eV)
  ---------------------------------------------------
  alpha Z        PSCENC =       490.14769152
  Ewald energy   TEWEN  =     -5503.00952914
  -Hartree energ DENC   =     -5182.27913944
  -exchange      EXHF   =         0.00000000
  -V(xc)+E(xc)   XCENC  =       295.77134584
  PAW double counting   =      8755.10086986    -8465.77839650
  entropy T*S    EENTRO =        -0.08498337
  eigenvalues    EBANDS =     -1690.61874361
  atomic energy  EATOM  =     11174.96942390
  Solvation  Ediel_sol  =         0.00000000
  ---------------------------------------------------
  free energy    TOTEN  =      -125.78146093 eV

  energy without entropy =     -125.69647756  energy(sigma->0) =     -125.73896925


--------------------------------------------------------------------------------------------------------




--------------------------------------- Iteration      1(   4)  ---------------------------------------


     EDDAV:  cpu time  107.3943: real time  108.2198
       DOS:  cpu time    0.0059: real time    0.0059
    --------------------------------------------
      LOOP:  cpu time  107.4002: real time  108.2257

 eigenvalue-minimisations  :  5344
 total energy-change (2. order) :-0.1168479E+02  (-0.1164560E+02)
 number of electron     153.0000000 magnetization      11.4000000
 augmentation part      153.0000000 magnetization      11.4000000

 Free energy of the ion-electron system (eV)
  ---------------------------------------------------
  alpha Z        PSCENC =       490.14769152
  Ewald energy   TEWEN  =     -5503.00952914
  -Hartree energ DENC   =     -5182.27913944
  -exchange      EXHF   =         0.00000000
  -V(xc)+E(xc)   XCENC  =       295.77134584
  PAW double counting   =      8755.10086986    -8465.77839650
  entropy T*S    EENTRO =        -0.08229197
  eigenvalues    EBANDS =     -1702.30622954
  atomic energy  EATOM  =     11174.96942390
  Solvation  Ediel_sol  =         0.00000000
  ---------------------------------------------------
  free energy    TOTEN  =      -137.46625547 eV

  energy without entropy =     -137.38396350  energy(sigma->0) =     -137.42510949


--------------------------------------------------------------------------------------------------------




--------------------------------------- Iteration      1(   5)  ---------------------------------------


     EDDAV:  cpu time  102.8755: real time  103.6636
       DOS:  cpu time    0.0056: real time    0.0056
    CHARGE:  cpu time    3.4561: real time    3.4825
    MIXING:  cpu time    0.0347: real time    0.0350
    --------------------------------------------
      LOOP:  cpu time  106.3720: real time  107.1868

 eigenvalue-minimisations  :  4928
 total energy-change (2. order) :-0.8638926E+00  (-0.8634646E+00)
 number of electron     153.0000004 magnetization       7.1968652
 augmentation part        6.4257082 magnetization       6.7017764

 Broyden mixing:
  rms(total) = 0.78375E+01    rms(broyden)= 0.78374E+01
  rms(prec ) = 0.82765E+01
  weight for this iteration     100.00

 Free energy of the ion-electron system (eV)
  ---------------------------------------------------
  alpha Z        PSCENC =       490.14769152
  Ewald energy   TEWEN  =     -5503.00952914
  -Hartree energ DENC   =     -5182.27913944
  -exchange      EXHF   =         0.00000000
  -V(xc)+E(xc)   XCENC  =       295.77134584
  PAW double counting   =      8755.10086986    -8465.77839650
  entropy T*S    EENTRO =        -0.08219335
  eigenvalues    EBANDS =     -1703.17022073
  atomic energy  EATOM  =     11174.96942390
  Solvation  Ediel_sol  =         0.00000000
  ---------------------------------------------------
  free energy    TOTEN  =      -138.33014804 eV

  energy without entropy =     -138.24795469  energy(sigma->0) =     -138.28905136


--------------------------------------------------------------------------------------------------------




--------------------------------------- Iteration      1(   6)  ---------------------------------------


    POTLOK:  cpu time    2.2798: real time    2.2977
    SETDIJ:  cpu time    0.2199: real time    0.2217
     EDDAV:  cpu time   81.9903: real time   82.6202
       DOS:  cpu time    0.0049: real time    0.0049
    CHARGE:  cpu time    3.2832: real time    3.3066
    MIXING:  cpu time    0.0321: real time    0.0323
    --------------------------------------------
      LOOP:  cpu time   87.8102: real time   88.4833

 eigenvalue-minimisations  :  3902
 total energy-change (2. order) : 0.2342671E+02  (-0.1241762E+02)
 number of electron     153.0000003 magnetization       4.3506739
 augmentation part        6.6373481 magnetization       3.7953960

 Broyden mixing:
  rms(total) = 0.68426E+01    rms(broyden)= 0.68426E+01
  rms(prec ) = 0.68686E+01
  weight for this iteration     100.00

 eigenvalues of (default mixing * dielectric matrix)
  average eigenvalue GAMMA=   1.1387
  1.1387

 Free energy of the ion-electron system (eV)
  ---------------------------------------------------
  alpha Z        PSCENC =       490.14769152
  Ewald energy   TEWEN  =     -5503.00952914
  -Hartree energ DENC   =     -5186.08252546
  -exchange      EXHF   =         0.00000000
  -V(xc)+E(xc)   XCENC  =       296.39704291
  PAW double counting   =     10953.20079637   -10679.31123539
  entropy T*S    EENTRO =        -0.05297694
  eigenvalues    EBANDS =     -1661.16212615
  atomic energy  EATOM  =     11174.96942390
  Solvation  Ediel_sol  =         0.00000000
  ---------------------------------------------------
  free energy    TOTEN  =      -114.90343836 eV

  energy without entropy =     -114.85046143  energy(sigma->0) =     -114.87694989


--------------------------------------------------------------------------------------------------------




--------------------------------------- Iteration      1(   7)  ---------------------------------------


    POTLOK:  cpu time    2.2506: real time    2.2683
    SETDIJ:  cpu time    0.2335: real time    0.2354
     EDDAV:  cpu time   87.5169: real time   88.1854
       DOS:  cpu time    0.0042: real time    0.0042
    CHARGE:  cpu time    3.6742: real time    3.7020
    MIXING:  cpu time    0.0309: real time    0.0311
    --------------------------------------------
      LOOP:  cpu time   93.7104: real time   94.4264

 eigenvalue-minimisations  :  4152
 total energy-change (2. order) :-0.1287100E+01  (-0.2032828E+01)
 number of electron     153.0000003 magnetization       1.1111666
 augmentation part        5.3678421 magnetization       0.6697989

 Broyden mixing:
  rms(total) = 0.38240E+01    rms(broyden)= 0.38240E+01
  rms(prec ) = 0.38408E+01
  weight for this iteration     100.00

 eigenvalues of (default mixing * dielectric matrix)
  average eigenvalue GAMMA=   1.5795
  0.7277  2.4312

 Free energy of the ion-electron system (eV)
  ---------------------------------------------------
  alpha Z        PSCENC =       490.14769152
  Ewald energy   TEWEN  =     -5503.00952914
  -Hartree energ DENC   =     -5171.86695086
  -exchange      EXHF   =         0.00000000
  -V(xc)+E(xc)   XCENC  =       294.51141444
  PAW double counting   =     12965.71701478   -12700.60151009
  entropy T*S    EENTRO =        -0.04878039
  eigenvalues    EBANDS =     -1666.00931228
  atomic energy  EATOM  =     11174.96942390
  Solvation  Ediel_sol  =         0.00000000
  ---------------------------------------------------
  free energy    TOTEN  =      -116.19053812 eV

  energy without entropy =     -116.14175773  energy(sigma->0) =     -116.16614792


--------------------------------------------------------------------------------------------------------




--------------------------------------- Iteration      1(   8)  ---------------------------------------


    POTLOK:  cpu time    2.4086: real time    2.4273
    SETDIJ:  cpu time    0.2325: real time    0.2343
     EDDAV:  cpu time   84.2017: real time   84.8456
       DOS:  cpu time    0.0040: real time    0.0040
    CHARGE:  cpu time    3.5681: real time    3.5950
    MIXING:  cpu time    0.0414: real time    0.0417
    --------------------------------------------
      LOOP:  cpu time   90.4563: real time   91.1479

 eigenvalue-minimisations  :  4048
 total energy-change (2. order) :-0.3682788E+00  (-0.6426963E+00)
 number of electron     153.0000003 magnetization       0.7556470
 augmentation part        5.1753425 magnetization       0.3809262

 Broyden mixing:
  rms(total) = 0.11437E+01    rms(broyden)= 0.11436E+01
  rms(prec ) = 0.11947E+01
  weight for this iteration     100.00

 eigenvalues of (default mixing * dielectric matrix)
  average eigenvalue GAMMA=   1.3120
  2.3776  0.9332  0.6253

 Free energy of the ion-electron system (eV)
  ---------------------------------------------------
  alpha Z        PSCENC =       490.14769152
  Ewald energy   TEWEN  =     -5503.00952914
  -Hartree energ DENC   =     -5185.53021719
  -exchange      EXHF   =         0.00000000
  -V(xc)+E(xc)   XCENC  =       294.18910571
  PAW double counting   =     14954.59879327   -14683.87131294
  entropy T*S    EENTRO =        -0.05936392
  eigenvalues    EBANDS =     -1657.99340816
  atomic energy  EATOM  =     11174.96942390
  Solvation  Ediel_sol  =         0.00000000
  ---------------------------------------------------
  free energy    TOTEN  =      -116.55881695 eV

  energy without entropy =     -116.49945303  energy(sigma->0) =     -116.52913499


--------------------------------------------------------------------------------------------------------




--------------------------------------- Iteration      1(   9)  ---------------------------------------


    POTLOK:  cpu time    2.1786: real time    2.1955
    SETDIJ:  cpu time    0.1953: real time    0.1969
     EDDAV:  cpu time   86.0958: real time   86.7531
       DOS:  cpu time    0.0042: real time    0.0042
    CHARGE:  cpu time    3.5403: real time    3.5669
    MIXING:  cpu time    0.0385: real time    0.0387
    --------------------------------------------
      LOOP:  cpu time   92.0527: real time   92.7553

 eigenvalue-minimisations  :  4248
 total energy-change (2. order) : 0.2521522E+00  (-0.1459577E+00)
 number of electron     153.0000003 magnetization       0.5753469
 augmentation part        5.0009579 magnetization       0.3237606

 Broyden mixing:
  rms(total) = 0.24443E+00    rms(broyden)= 0.24442E+00
  rms(prec ) = 0.27123E+00
  weight for this iteration     100.00

 eigenvalues of (default mixing * dielectric matrix)
  average eigenvalue GAMMA=   1.2306
  2.3692  0.9699  0.9699  0.6133

 Free energy of the ion-electron system (eV)
  ---------------------------------------------------
  alpha Z        PSCENC =       490.14769152
  Ewald energy   TEWEN  =     -5503.00952914
  -Hartree energ DENC   =     -5192.49347763
  -exchange      EXHF   =         0.00000000
  -V(xc)+E(xc)   XCENC  =       294.54754959
  PAW double counting   =     15074.63455660   -14802.04560777
  entropy T*S    EENTRO =        -0.06798658
  eigenvalues    EBANDS =     -1652.98928522
  atomic energy  EATOM  =     11174.96942390
  Solvation  Ediel_sol  =         0.00000000
  ---------------------------------------------------
  free energy    TOTEN  =      -116.30666473 eV

  energy without entropy =     -116.23867815  energy(sigma->0) =     -116.27267144


--------------------------------------------------------------------------------------------------------




--------------------------------------- Iteration      1(  10)  ---------------------------------------


    POTLOK:  cpu time    2.4302: real time    2.4490
    SETDIJ:  cpu time    0.2282: real time    0.2298
     EDDAV:  cpu time   86.6838: real time   87.3441
       DOS:  cpu time    0.0043: real time    0.0043
    CHARGE:  cpu time    3.0388: real time    3.0595
    MIXING:  cpu time    0.0349: real time    0.0351
    --------------------------------------------
      LOOP:  cpu time   92.4202: real time   93.1218

 eigenvalue-minimisations  :  4216
 total energy-change (2. order) :-0.1568822E-01  (-0.3566631E-01)
 number of electron     153.0000003 magnetization       0.3795232
 augmentation part        4.9161913 magnetization       0.1991407

 Broyden mixing:
  rms(total) = 0.13866E+00    rms(broyden)= 0.13865E+00
  rms(prec ) = 0.16136E+00
  weight for this iteration     100.00

 eigenvalues of (default mixing * dielectric matrix)
  average eigenvalue GAMMA=   1.2528
  2.2627  1.6694  0.8529  0.8529  0.6263

 Free energy of the ion-electron system (eV)
  ---------------------------------------------------
  alpha Z        PSCENC =       490.14769152
  Ewald energy   TEWEN  =     -5503.00952914
  -Hartree energ DENC   =     -5199.97820797
  -exchange      EXHF   =         0.00000000
  -V(xc)+E(xc)   XCENC  =       294.88995022
  PAW double counting   =     15096.53434420   -14820.65543126
  entropy T*S    EENTRO =        -0.07239976
  eigenvalues    EBANDS =     -1649.14819466
  atomic energy  EATOM  =     11174.96942390
  Solvation  Ediel_sol  =         0.00000000
  ---------------------------------------------------
  free energy    TOTEN  =      -116.32235294 eV

  energy without entropy =     -116.24995318  energy(sigma->0) =     -116.28615306


--------------------------------------------------------------------------------------------------------




--------------------------------------- Iteration      1(  11)  ---------------------------------------


    POTLOK:  cpu time    2.2189: real time    2.2362
    SETDIJ:  cpu time    0.1976: real time    0.1991
     EDDAV:  cpu time   85.6173: real time   86.2774
       DOS:  cpu time    0.0048: real time    0.0048
    CHARGE:  cpu time    3.2324: real time    3.2556
    MIXING:  cpu time    0.0338: real time    0.0340
    --------------------------------------------
      LOOP:  cpu time   91.3048: real time   92.0071

 eigenvalue-minimisations  :  4048
 total energy-change (2. order) :-0.4056662E-02  (-0.9927131E-02)
 number of electron     153.0000003 magnetization       0.2349513
 augmentation part        4.9212214 magnetization       0.1305015

 Broyden mixing:
  rms(total) = 0.52965E-01    rms(broyden)= 0.52964E-01
  rms(prec ) = 0.65447E-01
  weight for this iteration     100.00

 eigenvalues of (default mixing * dielectric matrix)
  average eigenvalue GAMMA=   1.2608
  2.2119  2.2119  0.8831  0.8831  0.6121  0.7630

 Free energy of the ion-electron system (eV)
  ---------------------------------------------------
  alpha Z        PSCENC =       490.14769152
  Ewald energy   TEWEN  =     -5503.00952914
  -Hartree energ DENC   =     -5208.98202047
  -exchange      EXHF   =         0.00000000
  -V(xc)+E(xc)   XCENC  =       295.23501895
  PAW double counting   =     15065.17936976   -14784.34348219
  entropy T*S    EENTRO =        -0.07574398
  eigenvalues    EBANDS =     -1645.44713796
  atomic energy  EATOM  =     11174.96942390
  Solvation  Ediel_sol  =         0.00000000
  ---------------------------------------------------
  free energy    TOTEN  =      -116.32640961 eV

  energy without entropy =     -116.25066562  energy(sigma->0) =     -116.28853762


--------------------------------------------------------------------------------------------------------




--------------------------------------- Iteration      1(  12)  ---------------------------------------


    POTLOK:  cpu time    2.1648: real time    2.1818
    SETDIJ:  cpu time    0.2101: real time    0.2118
     EDDAV:  cpu time   87.6020: real time   88.2764
       DOS:  cpu time    0.0053: real time    0.0054
    CHARGE:  cpu time    3.8833: real time    3.9133
    MIXING:  cpu time    0.0443: real time    0.0446
    --------------------------------------------
      LOOP:  cpu time   93.9098: real time   94.6334

 eigenvalue-minimisations  :  4152
 total energy-change (2. order) :-0.2131124E-02  (-0.1117966E-02)
 number of electron     153.0000003 magnetization       0.1579408
 augmentation part        4.9414518 magnetization       0.0962244

 Broyden mixing:
  rms(total) = 0.34477E-01    rms(broyden)= 0.34477E-01
  rms(prec ) = 0.40298E-01
  weight for this iteration     100.00

 eigenvalues of (default mixing * dielectric matrix)
  average eigenvalue GAMMA=   1.2433
  2.2813  2.2813  1.2340  0.8398  0.8398  0.6133  0.6133

 Free energy of the ion-electron system (eV)
  ---------------------------------------------------
  alpha Z        PSCENC =       490.14769152
  Ewald energy   TEWEN  =     -5503.00952914
  -Hartree energ DENC   =     -5212.10115436
  -exchange      EXHF   =         0.00000000
  -V(xc)+E(xc)   XCENC  =       295.35280189
  PAW double counting   =     15091.13204329   -14809.02677022
  entropy T*S    EENTRO =        -0.07654180
  eigenvalues    EBANDS =     -1643.71650581
  atomic energy  EATOM  =     11174.96942390
  Solvation  Ediel_sol  =         0.00000000
  ---------------------------------------------------
  free energy    TOTEN  =      -116.32854073 eV

  energy without entropy =     -116.25199893  energy(sigma->0) =     -116.29026983


--------------------------------------------------------------------------------------------------------




--------------------------------------- Iteration      1(  13)  ---------------------------------------


    POTLOK:  cpu time    2.3563: real time    2.3743
    SETDIJ:  cpu time    0.2244: real time    0.2260
     EDDAV:  cpu time   88.4623: real time   89.1378
       DOS:  cpu time    0.0047: real time    0.0047
    CHARGE:  cpu time    3.4610: real time    3.4872
    MIXING:  cpu time    0.0375: real time    0.0377
    --------------------------------------------
      LOOP:  cpu time   94.5460: real time   95.2677

 eigenvalue-minimisations  :  4320
 total energy-change (2. order) :-0.1489855E-02  (-0.4358182E-03)
 number of electron     153.0000003 magnetization       0.0872703
 augmentation part        4.9508401 magnetization       0.0388687

 Broyden mixing:
  rms(total) = 0.15725E-01    rms(broyden)= 0.15724E-01
  rms(prec ) = 0.20867E-01
  weight for this iteration     100.00

 eigenvalues of (default mixing * dielectric matrix)
  average eigenvalue GAMMA=   1.2731
  2.3753  2.3753  1.4073  1.1183  0.8360  0.8360  0.6182  0.6182

 Free energy of the ion-electron system (eV)
  ---------------------------------------------------
  alpha Z        PSCENC =       490.14769152
  Ewald energy   TEWEN  =     -5503.00952914
  -Hartree energ DENC   =     -5213.15315112
  -exchange      EXHF   =         0.00000000
  -V(xc)+E(xc)   XCENC  =       295.38859384
  PAW double counting   =     15102.94762426   -14820.66428092
  entropy T*S    EENTRO =        -0.07677542
  eigenvalues    EBANDS =     -1642.87962750
  atomic energy  EATOM  =     11174.96942390
  Solvation  Ediel_sol  =         0.00000000
  ---------------------------------------------------
  free energy    TOTEN  =      -116.33003058 eV

  energy without entropy =     -116.25325517  energy(sigma->0) =     -116.29164287


--------------------------------------------------------------------------------------------------------




--------------------------------------- Iteration      1(  14)  ---------------------------------------


    POTLOK:  cpu time    2.2021: real time    2.2198
    SETDIJ:  cpu time    0.1990: real time    0.2005
     EDDAV:  cpu time   78.4392: real time   79.0349
       DOS:  cpu time    0.0084: real time    0.0085
    CHARGE:  cpu time    3.0975: real time    3.1197
    MIXING:  cpu time    0.0414: real time    0.0418
    --------------------------------------------
      LOOP:  cpu time   83.9878: real time   84.6252

 eigenvalue-minimisations  :  3760
 total energy-change (2. order) :-0.1389932E-02  (-0.2218799E-03)
 number of electron     153.0000003 magnetization       0.0298809
 augmentation part        4.9550190 magnetization       0.0015878

 Broyden mixing:
  rms(total) = 0.81228E-02    rms(broyden)= 0.81226E-02
  rms(prec ) = 0.11973E-01
  weight for this iteration     100.00

 eigenvalues of (default mixing * dielectric matrix)
  average eigenvalue GAMMA=   1.3283
  2.5476  2.5476  1.7720  1.3821  0.8475  0.8475  0.7764  0.6171  0.6171

 Free energy of the ion-electron system (eV)
  ---------------------------------------------------
  alpha Z        PSCENC =       490.14769152
  Ewald energy   TEWEN  =     -5503.00952914
  -Hartree energ DENC   =     -5214.17727022
  -exchange      EXHF   =         0.00000000
  -V(xc)+E(xc)   XCENC  =       295.42014965
  PAW double counting   =     15103.95027913   -14821.51810708
  entropy T*S    EENTRO =        -0.07699167
  eigenvalues    EBANDS =     -1642.03706661
  atomic energy  EATOM  =     11174.96942390
  Solvation  Ediel_sol  =         0.00000000
  ---------------------------------------------------
  free energy    TOTEN  =      -116.33142052 eV

  energy without entropy =     -116.25442885  energy(sigma->0) =     -116.29292468


--------------------------------------------------------------------------------------------------------




--------------------------------------- Iteration      1(  15)  ---------------------------------------


    POTLOK:  cpu time    2.0887: real time    2.1044
    SETDIJ:  cpu time    0.2028: real time    0.2043
     EDDAV:  cpu time   68.2949: real time   68.8023
       DOS:  cpu time    0.0037: real time    0.0038
    CHARGE:  cpu time    2.6484: real time    2.6679
    MIXING:  cpu time    0.0364: real time    0.0367
    --------------------------------------------
      LOOP:  cpu time   73.2749: real time   73.8193

 eigenvalue-minimisations  :  3704
 total energy-change (2. order) :-0.6180750E-03  (-0.8795820E-04)
 number of electron     153.0000003 magnetization       0.0066274
 augmentation part        4.9588437 magnetization      -0.0034480

 Broyden mixing:
  rms(total) = 0.48047E-02    rms(broyden)= 0.48046E-02
  rms(prec ) = 0.64766E-02
  weight for this iteration     100.00

 eigenvalues of (default mixing * dielectric matrix)
  average eigenvalue GAMMA=   1.3477
  2.8566  2.2687  2.2687  1.5443  0.9585  0.8146  0.8146  0.6116  0.6695  0.6695

 Free energy of the ion-electron system (eV)
  ---------------------------------------------------
  alpha Z        PSCENC =       490.14769152
  Ewald energy   TEWEN  =     -5503.00952914
  -Hartree energ DENC   =     -5214.83174196
  -exchange      EXHF   =         0.00000000
  -V(xc)+E(xc)   XCENC  =       295.44036083
  PAW double counting   =     15108.38363574   -14825.99658470
  entropy T*S    EENTRO =        -0.07708236
  eigenvalues    EBANDS =     -1641.35821241
  atomic energy  EATOM  =     11174.96942390
  Solvation  Ediel_sol  =         0.00000000
  ---------------------------------------------------
  free energy    TOTEN  =      -116.33203859 eV

  energy without entropy =     -116.25495623  energy(sigma->0) =     -116.29349741


--------------------------------------------------------------------------------------------------------




--------------------------------------- Iteration      1(  16)  ---------------------------------------


    POTLOK:  cpu time    1.8075: real time    1.8203
    SETDIJ:  cpu time    0.1811: real time    0.1824
     EDDAV:  cpu time   52.8313: real time   53.2122
       DOS:  cpu time    0.0042: real time    0.0043
    CHARGE:  cpu time    2.0505: real time    2.0630
    MIXING:  cpu time    0.0289: real time    0.0291
    --------------------------------------------
      LOOP:  cpu time   56.9035: real time   57.3113

 eigenvalue-minimisations  :  3728
 total energy-change (2. order) :-0.1334273E-03  (-0.3539532E-04)
 number of electron     153.0000003 magnetization       0.0000503
 augmentation part        4.9607892 magnetization      -0.0028542

 Broyden mixing:
  rms(total) = 0.28653E-02    rms(broyden)= 0.28651E-02
  rms(prec ) = 0.33390E-02
  weight for this iteration     100.00

 eigenvalues of (default mixing * dielectric matrix)
  average eigenvalue GAMMA=   1.3499
  3.2898  2.3042  2.3042  1.6988  1.0396  0.8169  0.8169  0.7400  0.6560  0.6146
  0.5682

 Free energy of the ion-electron system (eV)
  ---------------------------------------------------
  alpha Z        PSCENC =       490.14769152
  Ewald energy   TEWEN  =     -5503.00952914
  -Hartree energ DENC   =     -5215.04247850
  -exchange      EXHF   =         0.00000000
  -V(xc)+E(xc)   XCENC  =       295.44684672
  PAW double counting   =     15108.68091930   -14826.39249842
  entropy T*S    EENTRO =        -0.07709511
  eigenvalues    EBANDS =     -1641.05545229
  atomic energy  EATOM  =     11174.96942390
  Solvation  Ediel_sol  =         0.00000000
  ---------------------------------------------------
  free energy    TOTEN  =      -116.33217202 eV

  energy without entropy =     -116.25507691  energy(sigma->0) =     -116.29362446


--------------------------------------------------------------------------------------------------------




--------------------------------------- Iteration      1(  17)  ---------------------------------------


    POTLOK:  cpu time    1.3491: real time    1.3576
    SETDIJ:  cpu time    0.1315: real time    0.1324
     EDDAV:  cpu time   38.3677: real time   38.6277
       DOS:  cpu time    0.0044: real time    0.0044
    CHARGE:  cpu time    1.9827: real time    1.9947
    MIXING:  cpu time    0.0268: real time    0.0270
    --------------------------------------------
      LOOP:  cpu time   41.8622: real time   42.1438

 eigenvalue-minimisations  :  3176
 total energy-change (2. order) :-0.2685733E-04  (-0.4352139E-05)
 number of electron     153.0000003 magnetization      -0.0007112
 augmentation part        4.9609648 magnetization      -0.0008715

 Broyden mixing:
  rms(total) = 0.15543E-02    rms(broyden)= 0.15542E-02
  rms(prec ) = 0.18034E-02
  weight for this iteration     100.00

 eigenvalues of (default mixing * dielectric matrix)
  average eigenvalue GAMMA=   1.3583
  3.4855  2.4278  2.4278  1.7356  1.1659  0.8096  0.8096  0.8489  0.7457  0.6615
  0.5905  0.5905

 Free energy of the ion-electron system (eV)
  ---------------------------------------------------
  alpha Z        PSCENC =       490.14769152
  Ewald energy   TEWEN  =     -5503.00952914
  -Hartree energ DENC   =     -5215.04956182
  -exchange      EXHF   =         0.00000000
  -V(xc)+E(xc)   XCENC  =       295.44646351
  PAW double counting   =     15106.81958969   -14824.61833332
  entropy T*S    EENTRO =        -0.07709670
  eigenvalues    EBANDS =     -1640.96084651
  atomic energy  EATOM  =     11174.96942390
  Solvation  Ediel_sol  =         0.00000000
  ---------------------------------------------------
  free energy    TOTEN  =      -116.33219888 eV

  energy without entropy =     -116.25510217  energy(sigma->0) =     -116.29365052


--------------------------------------------------------------------------------------------------------




--------------------------------------- Iteration      1(  18)  ---------------------------------------


    POTLOK:  cpu time    1.2697: real time    1.2771
    SETDIJ:  cpu time    0.1170: real time    0.1177
     EDDAV:  cpu time   24.6381: real time   24.7635
       DOS:  cpu time    0.0035: real time    0.0035
    --------------------------------------------
      LOOP:  cpu time   26.0282: real time   26.1618

 eigenvalue-minimisations  :  2496
 total energy-change (2. order) :-0.3616220E-05  (-0.4518492E-06)
 number of electron     153.0000003 magnetization      -0.0007112
 augmentation part        4.9609648 magnetization      -0.0008715

 Free energy of the ion-electron system (eV)
  ---------------------------------------------------
  alpha Z        PSCENC =       490.14769152
  Ewald energy   TEWEN  =     -5503.00952914
  -Hartree energ DENC   =     -5215.03362335
  -exchange      EXHF   =         0.00000000
  -V(xc)+E(xc)   XCENC  =       295.44536357
  PAW double counting   =     15105.79288570   -14823.62186777
  entropy T*S    EENTRO =        -0.07709693
  eigenvalues    EBANDS =     -1640.94545000
  atomic energy  EATOM  =     11174.96942390
  Solvation  Ediel_sol  =         0.00000000
  ---------------------------------------------------
  free energy    TOTEN  =      -116.33220249 eV

  energy without entropy =     -116.25510556  energy(sigma->0) =     -116.29365402


--------------------------------------------------------------------------------------------------------




 average (electrostatic) potential at core
  the test charge radii are     1.2780  0.6991  1.1875
  (the norm of the test charge is              1.0000)
       1 -36.9050       2 -36.8766       3 -37.0049       4 -36.9484       5 -36.7303
       6 -37.3298       7 -36.9740       8 -36.9329       9 -49.9910      10 -50.0103
      11 -49.9484      12 -50.0356      13 -92.7094      14 -92.7167      15 -92.7765
      16 -92.7662      17 -92.6639      18 -92.7094      19 -93.0615



 E-fermi :   3.5280     XC(G=0):  -8.6130     alpha+bet : -9.1734


 spin component 1

 k-point     1 :       0.0000    0.0000    0.0000
  band No.  band energies     occupation 
      1     -39.2141      1.00000
      2     -38.9044      1.00000
      3     -38.8694      1.00000
      4     -38.8410      1.00000
      5     -38.8202      1.00000
      6     -38.7962      1.00000
      7     -38.7662      1.00000
      8     -38.6416      1.00000
      9     -19.3488      1.00000
     10     -19.2542      1.00000
     11     -19.2270      1.00000
     12     -19.1398      1.00000
     13     -19.1019      1.00000
     14     -19.0865      1.00000
     15     -19.0345      1.00000
     16     -18.9893      1.00000
     17     -18.9360      1.00000
     18     -18.8906      1.00000
     19     -18.8807      1.00000
     20     -18.8511      1.00000
     21     -18.8349      1.00000
     22     -18.8179      1.00000
     23     -18.7910      1.00000
     24     -18.7779      1.00000
     25     -18.7586      1.00000
     26     -18.7292      1.00000
     27     -18.7199      1.00000
     28     -18.7111      1.00000
     29     -18.7070      1.00000
     30     -18.6558      1.00000
     31     -18.5952      1.00000
     32     -18.5935      1.00000
     33      -9.9719      1.00000
     34      -9.8602      1.00000
     35      -9.5547      1.00000
     36      -9.3164      1.00000
     37      -9.2824      1.00000
     38      -9.2524      1.00000
     39      -8.9748      1.00000
     40      -5.4115      1.00000
     41      -4.9643      1.00000
     42      -4.9169      1.00000
     43      -4.8189      1.00000
     44      -1.3070      1.00000
     45      -1.0784      1.00000
     46      -0.9402      1.00000
     47      -0.8167      1.00000
     48      -0.7390      1.00000
     49      -0.6982      1.00000
     50      -0.4660      1.00000
     51      -0.1608      1.00000
     52      -0.0079      1.00000
     53       0.0835      1.00000
     54       0.1253      1.00000
     55       0.2605      1.00000
     56       0.3047      1.00000
     57       0.3589      1.00000
     58       0.4706      1.00000
     59       0.5473      1.00000
     60       1.1738      1.00000
     61       1.2741      1.00000
     62       1.3815      1.00000
     63       1.5383      1.00000
     64       1.5500      1.00000
     65       1.6410      1.00000
     66       1.7528      1.00000
     67       1.7806      1.00000
     68       1.9223      1.00000
     69       1.9923      1.00000
     70       2.1865      1.00000
     71       2.3413      1.00000
     72       2.3772      1.00000
     73       2.4607      1.00000
     74       2.5280      1.00000
     75       2.6586      1.00000
     76       2.7477      1.00000
     77       3.4639      0.67505
     78       4.2079      0.00000
     79       4.6265      0.00000
     80       4.8887      0.00000
     81       4.9195      0.00000
     82       5.2062      0.00000
     83       5.2169      0.00000
     84       5.2982      0.00000
     85       5.6673      0.00000
     86       6.2058      0.00000
     87       6.4980      0.00000
     88       6.6312      0.00000
     89       6.6461      0.00000
     90       6.7708      0.00000
     91       6.8185      0.00000
     92       6.9238      0.00000
     93       7.0256      0.00000
     94       7.1023      0.00000
     95       7.1928      0.00000
     96       7.2747      0.00000
     97       7.2916      0.00000

 k-point     2 :       0.5000    0.0000    0.0000
  band No.  band energies     occupation 
      1     -39.2141      1.00000
      2     -38.9028      1.00000
      3     -38.8714      1.00000
      4     -38.8414      1.00000
      5     -38.8195      1.00000
      6     -38.7955      1.00000
      7     -38.7670      1.00000
      8     -38.6415      1.00000
      9     -19.3463      1.00000
     10     -19.2447      1.00000
     11     -19.2162      1.00000
     12     -19.1317      1.00000
     13     -19.0905      1.00000
     14     -19.0610      1.00000
     15     -18.9992      1.00000
     16     -18.9834      1.00000
     17     -18.9561      1.00000
     18     -18.9234      1.00000
     19     -18.9035      1.00000
     20     -18.8463      1.00000
     21     -18.8261      1.00000
     22     -18.8140      1.00000
     23     -18.7914      1.00000
     24     -18.7791      1.00000
     25     -18.7653      1.00000
     26     -18.7580      1.00000
     27     -18.7290      1.00000
     28     -18.7267      1.00000
     29     -18.7095      1.00000
     30     -18.6492      1.00000
     31     -18.6046      1.00000
     32     -18.5849      1.00000
     33      -9.7669      1.00000
     34      -9.7355      1.00000
     35      -9.6894      1.00000
     36      -9.6648      1.00000
     37      -9.2081      1.00000
     38      -9.2017      1.00000
     39      -8.9760      1.00000
     40      -5.2418      1.00000
     41      -5.1640      1.00000
     42      -4.8937      1.00000
     43      -4.7984      1.00000
     44      -1.0300      1.00000
     45      -0.8630      1.00000
     46      -0.8302      1.00000
     47      -0.5541      1.00000
     48      -0.4811      1.00000
     49      -0.2887      1.00000
     50      -0.1969      1.00000
     51      -0.1645      1.00000
     52      -0.0587      1.00000
     53      -0.0299      1.00000
     54       0.0043      1.00000
     55       0.1454      1.00000
     56       0.2507      1.00000
     57       0.2875      1.00000
     58       0.5028      1.00000
     59       0.5552      1.00000
     60       0.5743      1.00000
     61       0.6435      1.00000
     62       1.4641      1.00000
     63       1.4865      1.00000
     64       1.5005      1.00000
     65       1.5609      1.00000
     66       1.6695      1.00000
     67       1.7897      1.00000
     68       1.8712      1.00000
     69       1.8970      1.00000
     70       1.9457      1.00000
     71       2.0252      1.00000
     72       2.1709      1.00000
     73       2.2720      1.00000
     74       2.3815      1.00000
     75       2.5880      1.00000
     76       2.6111      1.00000
     77       4.4277      0.00000
     78       4.4892      0.00000
     79       4.5347      0.00000
     80       4.6884      0.00000
     81       5.0414      0.00000
     82       5.2414      0.00000
     83       5.2658      0.00000
     84       5.5915      0.00000
     85       5.7456      0.00000
     86       5.9446      0.00000
     87       6.0205      0.00000
     88       6.1202      0.00000
     89       6.3227      0.00000
     90       6.5024      0.00000
     91       6.6079      0.00000
     92       6.6459      0.00000
     93       6.7653      0.00000
     94       7.0979      0.00000
     95       7.1507      0.00000
     96       7.2380      0.00000
     97       7.3731      0.00000

 k-point     3 :       0.0000    0.5000    0.0000
  band No.  band energies     occupation 
      1     -39.2140      1.00000
      2     -38.9035      1.00000
      3     -38.8697      1.00000
      4     -38.8405      1.00000
      5     -38.8213      1.00000
      6     -38.7963      1.00000
      7     -38.7665      1.00000
      8     -38.6416      1.00000
      9     -19.3464      1.00000
     10     -19.2606      1.00000
     11     -19.2256      1.00000
     12     -19.1417      1.00000
     13     -19.1096      1.00000
     14     -19.0660      1.00000
     15     -19.0494      1.00000
     16     -18.9551      1.00000
     17     -18.9255      1.00000
     18     -18.9134      1.00000
     19     -18.8578      1.00000
     20     -18.8509      1.00000
     21     -18.8404      1.00000
     22     -18.8204      1.00000
     23     -18.8022      1.00000
     24     -18.7871      1.00000
     25     -18.7595      1.00000
     26     -18.7346      1.00000
     27     -18.7319      1.00000
     28     -18.7122      1.00000
     29     -18.7019      1.00000
     30     -18.6548      1.00000
     31     -18.5944      1.00000
     32     -18.5928      1.00000
     33      -9.8012      1.00000
     34      -9.6614      1.00000
     35      -9.6073      1.00000
     36      -9.3992      1.00000
     37      -9.3144      1.00000
     38      -9.2808      1.00000
     39      -9.2401      1.00000
     40      -5.1935      1.00000
     41      -5.1232      1.00000
     42      -4.9378      1.00000
     43      -4.8393      1.00000
     44      -1.3255      1.00000
     45      -1.2914      1.00000
     46      -1.0529      1.00000
     47      -0.5903      1.00000
     48      -0.4145      1.00000
     49      -0.3410      1.00000
     50      -0.2046      1.00000
     51      -0.1932      1.00000
     52      -0.0107      1.00000
     53       0.0720      1.00000
     54       0.1128      1.00000
     55       0.1973      1.00000
     56       0.2360      1.00000
     57       0.4431      1.00000
     58       0.7089      1.00000
     59       1.1500      1.00000
     60       1.1896      1.00000
     61       1.2443      1.00000
     62       1.3174      1.00000
     63       1.3529      1.00000
     64       1.4786      1.00000
     65       1.5362      1.00000
     66       1.5850      1.00000
     67       1.6454      1.00000
     68       1.8270      1.00000
     69       1.9905      1.00000
     70       2.0466      1.00000
     71       2.2368      1.00000
     72       2.3895      1.00000
     73       2.4093      1.00000
     74       2.4805      1.00000
     75       2.4922      1.00000
     76       2.5324      1.00000
     77       3.4466      0.71770
     78       3.4796      0.63396
     79       4.0162      0.00028
     80       4.2424      0.00000
     81       4.7462      0.00000
     82       5.7163      0.00000
     83       5.8480      0.00000
     84       5.9252      0.00000
     85       6.0797      0.00000
     86       6.1807      0.00000
     87       6.3884      0.00000
     88       6.6420      0.00000
     89       6.7522      0.00000
     90       6.8131      0.00000
     91       6.9023      0.00000
     92       7.0398      0.00000
     93       7.1011      0.00000
     94       7.1369      0.00000
     95       7.2077      0.00000
     96       7.2807      0.00000
     97       7.3269      0.00000

 k-point     4 :       0.5000    0.5000    0.0000
  band No.  band energies     occupation 
      1     -39.2140      1.00000
      2     -38.9020      1.00000
      3     -38.8713      1.00000
      4     -38.8410      1.00000
      5     -38.8206      1.00000
      6     -38.7955      1.00000
      7     -38.7674      1.00000
      8     -38.6415      1.00000
      9     -19.3448      1.00000
     10     -19.2450      1.00000
     11     -19.2149      1.00000
     12     -19.1302      1.00000
     13     -19.0852      1.00000
     14     -19.0489      1.00000
     15     -18.9995      1.00000
     16     -18.9779      1.00000
     17     -18.9696      1.00000
     18     -18.9106      1.00000
     19     -18.9014      1.00000
     20     -18.8767      1.00000
     21     -18.8295      1.00000
     22     -18.8122      1.00000
     23     -18.8070      1.00000
     24     -18.7774      1.00000
     25     -18.7604      1.00000
     26     -18.7462      1.00000
     27     -18.7324      1.00000
     28     -18.7197      1.00000
     29     -18.7107      1.00000
     30     -18.6543      1.00000
     31     -18.6041      1.00000
     32     -18.5833      1.00000
     33      -9.7209      1.00000
     34      -9.5071      1.00000
     35      -9.5001      1.00000
     36      -9.4566      1.00000
     37      -9.4430      1.00000
     38      -9.4335      1.00000
     39      -9.2819      1.00000
     40      -5.1046      1.00000
     41      -5.0596      1.00000
     42      -5.0182      1.00000
     43      -4.9039      1.00000
     44      -0.5388      1.00000
     45      -0.5039      1.00000
     46      -0.4787      1.00000
     47      -0.4541      1.00000
     48      -0.4398      1.00000
     49      -0.3703      1.00000
     50      -0.3555      1.00000
     51      -0.2682      1.00000
     52      -0.2101      1.00000
     53      -0.1057      1.00000
     54      -0.0176      1.00000
     55       0.0520      1.00000
     56       0.0824      1.00000
     57       0.1970      1.00000
     58       0.3713      1.00000
     59       0.9948      1.00000
     60       1.0707      1.00000
     61       1.0952      1.00000
     62       1.1090      1.00000
     63       1.1396      1.00000
     64       1.3009      1.00000
     65       1.4006      1.00000
     66       1.5965      1.00000
     67       1.6897      1.00000
     68       1.7418      1.00000
     69       1.9959      1.00000
     70       2.0545      1.00000
     71       2.1034      1.00000
     72       2.2006      1.00000
     73       2.2171      1.00000
     74       2.2972      1.00000
     75       2.3174      1.00000
     76       2.3937      1.00000
     77       4.0479      0.00012
     78       4.1306      0.00001
     79       4.1443      0.00001
     80       4.2509      0.00000
     81       4.8736      0.00000
     82       5.1504      0.00000
     83       5.4286      0.00000
     84       5.5131      0.00000
     85       5.6908      0.00000
     86       6.1651      0.00000
     87       6.2693      0.00000
     88       6.4631      0.00000
     89       6.5767      0.00000
     90       6.6849      0.00000
     91       6.9280      0.00000
     92       6.9643      0.00000
     93       7.0125      0.00000
     94       7.1105      0.00000
     95       7.1426      0.00000
     96       7.2690      0.00000
     97       7.3477      0.00000

 k-point     5 :       0.0000    0.0000    0.5000
  band No.  band energies     occupation 
[...]
  0.000   0.000  -0.005   0.006   0.269   0.004  -0.007  -0.267  -0.043  -0.002   0.003   0.006  -0.000   0.022   0.001  -0.002
 -0.000  -0.001  -0.126  -0.004   0.008   0.127   0.005  -0.008  -0.004   0.030  -0.001   0.004  -0.025   0.002  -0.018   0.000
 -0.004   0.026   0.003   0.182   0.004  -0.004  -0.182  -0.003   0.002   0.005  -0.034  -0.001   0.000  -0.001  -0.003   0.017
  0.001  -0.002   0.009  -0.015  -0.123  -0.009   0.013   0.125  -0.024   0.004  -0.001   0.028  -0.003   0.013  -0.002   0.001
 -0.000  -0.002   0.265   0.000  -0.012  -0.264  -0.001   0.011  -0.000   0.009   0.001  -0.004  -0.049   0.000  -0.005  -0.001
  0.000  -0.001   0.003  -0.003   0.001  -0.002   0.003  -0.002   0.002   0.000   0.000  -0.001  -0.001  -0.001  -0.000  -0.000
 total augmentation occupancy for first ion, spin component:           2
  0.000   0.000  -0.000  -0.000  -0.000   0.000   0.000   0.000   0.000  -0.000   0.000  -0.000   0.000  -0.000   0.000  -0.000
  0.000   0.000  -0.000  -0.000  -0.000   0.000   0.000   0.000   0.000  -0.000   0.000  -0.000   0.000  -0.000   0.000  -0.000
 -0.000  -0.000   0.000  -0.000   0.000  -0.000   0.000  -0.000   0.000   0.000  -0.000  -0.000  -0.000  -0.000  -0.000  -0.000
 -0.000  -0.000  -0.000  -0.000  -0.000   0.000   0.000   0.000  -0.000   0.000  -0.000   0.000  -0.000   0.000  -0.000   0.000
 -0.000  -0.000   0.000  -0.000  -0.000  -0.000   0.000   0.000   0.000  -0.000   0.000  -0.000  -0.000  -0.000  -0.000  -0.000
  0.000   0.000  -0.000   0.000  -0.000   0.000  -0.000   0.000  -0.000  -0.000   0.000   0.000   0.000   0.000   0.000   0.000
  0.000   0.000   0.000   0.000   0.000  -0.000  -0.000  -0.000   0.000  -0.000   0.000  -0.000   0.000  -0.000   0.000  -0.000
  0.000   0.000  -0.000   0.000   0.000   0.000  -0.000  -0.000  -0.000   0.000  -0.000   0.000   0.000   0.000   0.000   0.000
  0.000   0.000   0.000  -0.000   0.000  -0.000   0.000  -0.000   0.000  -0.000   0.000  -0.000  -0.000  -0.000   0.000  -0.000
 -0.000  -0.000   0.000   0.000  -0.000  -0.000  -0.000   0.000  -0.000   0.000  -0.000   0.000  -0.000   0.000  -0.000   0.000
  0.000   0.000  -0.000  -0.000   0.000   0.000   0.000  -0.000   0.000  -0.000   0.000   0.000  -0.000   0.000   0.000  -0.000
 -0.000  -0.000  -0.000   0.000  -0.000   0.000  -0.000   0.000  -0.000   0.000   0.000   0.000   0.000   0.000  -0.000  -0.000
  0.000   0.000  -0.000  -0.000  -0.000   0.000   0.000   0.000  -0.000  -0.000  -0.000   0.000   0.000   0.000   0.000   0.000
 -0.000  -0.000  -0.000   0.000  -0.000   0.000  -0.000   0.000  -0.000   0.000   0.000   0.000   0.000   0.000  -0.000  -0.000
  0.000   0.000  -0.000  -0.000  -0.000   0.000   0.000   0.000   0.000  -0.000   0.000  -0.000   0.000  -0.000   0.000  -0.000
 -0.000  -0.000  -0.000   0.000  -0.000   0.000  -0.000   0.000  -0.000   0.000  -0.000  -0.000   0.000  -0.000  -0.000   0.000
  0.000   0.000   0.000  -0.000   0.000  -0.000   0.000  -0.000  -0.000   0.000  -0.000  -0.000  -0.000   0.000  -0.000   0.000
 -0.000  -0.000   0.000   0.000   0.000  -0.000  -0.000  -0.000   0.000   0.000   0.000  -0.000  -0.000  -0.000  -0.000  -0.000
 -0.000  -0.000  -0.000   0.000  -0.000   0.000  -0.000   0.000  -0.000   0.000   0.000   0.000   0.000   0.000  -0.000  -0.000
 -0.000  -0.000  -0.000  -0.000   0.000   0.000   0.000  -0.000   0.000  -0.000  -0.000   0.000   0.000  -0.000   0.000   0.000
  0.000  -0.000   0.000   0.000  -0.000  -0.000  -0.000   0.000  -0.000  -0.000   0.000  -0.000   0.000   0.000   0.000  -0.000
 -0.000  -0.000  -0.000   0.000  -0.000   0.000  -0.000   0.000  -0.000   0.000   0.000  -0.000   0.000   0.000  -0.000  -0.000
 -0.000  -0.000  -0.000  -0.000   0.000   0.000   0.000  -0.000  -0.000   0.000   0.000  -0.000   0.000   0.000  -0.000  -0.000
 -0.000  -0.000   0.000  -0.000   0.000  -0.000   0.000  -0.000   0.000  -0.000  -0.000  -0.000   0.000  -0.000   0.000  -0.000
  0.000   0.000   0.000   0.000  -0.000  -0.000  -0.000   0.000  -0.000   0.000   0.000  -0.000   0.000   0.000  -0.000  -0.000


------------------------ aborting loop because EDIFF is reached ----------------------------------------





 total charge     

# of ion       s       p       d       f       tot
--------------------------------------------------
    1        2.183   6.373   0.943   0.044   9.543
    2        2.183   6.370   0.942   0.043   9.537
    3        2.183   6.370   0.937   0.043   9.533
    4        2.183   6.370   0.937   0.043   9.534
    5        2.201   6.383   0.995   0.044   9.623
    6        2.200   6.316   0.986   0.038   9.540
    7        2.195   6.346   0.977   0.041   9.559
    8        2.182   6.347   0.932   0.040   9.502
    9        0.864   1.384   0.000   0.000   2.248
   10        0.864   1.379   0.000   0.000   2.243
   11        0.865   1.375   0.000   0.000   2.239
   12        0.864   1.364   0.000   0.000   2.228
   13        1.508   2.833   0.019   0.000   4.360
   14        1.507   2.833   0.019   0.000   4.359
   15        1.508   2.832   0.019   0.000   4.358
   16        1.508   2.832   0.019   0.000   4.359
   17        1.509   2.810   0.015   0.000   4.334
   18        1.511   2.832   0.020   0.000   4.363
   19        1.505   2.823   0.014   0.000   4.343
--------------------------------------------------
tot         31.523  76.173   7.773   0.336 115.805




 magnetization (x)

# of ion       s       p       d       f       tot
--------------------------------------------------
    1       -0.000   0.000  -0.000   0.000  -0.000
    2       -0.000   0.000  -0.000  -0.000  -0.000
    3        0.000  -0.000  -0.000   0.000  -0.000
    4        0.000  -0.000  -0.000  -0.000  -0.000
    5       -0.000   0.000  -0.000   0.000  -0.000
    6        0.000   0.000   0.000  -0.000   0.000
    7        0.000  -0.000   0.000  -0.000   0.000
    8        0.000  -0.000  -0.000  -0.000  -0.000
    9        0.000   0.000   0.000   0.000   0.000
   10        0.000  -0.000   0.000   0.000  -0.000
   11       -0.000  -0.000   0.000   0.000  -0.000
   12        0.000  -0.000   0.000   0.000  -0.000
   13       -0.000   0.000  -0.000   0.000   0.000
   14       -0.000  -0.000  -0.000   0.000  -0.000
   15       -0.000  -0.000   0.000   0.000  -0.000
   16        0.000   0.000   0.000   0.000   0.000
   17       -0.000  -0.000   0.000   0.000  -0.000
   18        0.000  -0.000  -0.000   0.000  -0.000
   19       -0.000  -0.000   0.000   0.000  -0.000
--------------------------------------------------
tot          0.000  -0.000  -0.000  -0.000  -0.000


    CHARGE:  cpu time    3.1519: real time    3.1716
    FORLOC:  cpu time    0.1628: real time    0.1637
    FORNL :  cpu time   18.5621: real time   18.6768
    STRESS:  cpu time   38.8236: real time   39.0598
    FORCOR:  cpu time    1.0149: real time    1.0178
    FORHAR:  cpu time    0.1723: real time    0.1729
    MIXING:  cpu time    0.0181: real time    0.0182
    OFIELD:  cpu time    0.0000: real time    0.0000

  FORCE on cell =-STRESS in cart. coord.  units (eV):
  Direction    XX          YY          ZZ          XY          YZ          ZX
  --------------------------------------------------------------------------------------
  Alpha Z   490.14769   490.14769   490.14769
  Ewald     525.22711   578.79289 -6634.93852   -48.84879     8.08414    23.99692
  Hartree  3935.91758  3960.62929 -2708.97454   -22.91572     5.69914     9.14893
  E(xc)    -597.55637  -597.39817  -597.98207    -0.10600     0.01377     0.03257
  Local   -6599.46481 -6676.65996  7226.28889    72.56191   -14.58383   -34.12483
  n-local   536.47911   537.21893   540.76625    -0.30594     0.01962    -0.28627
  augment  -143.52730  -143.35098  -142.33634    -0.09694    -0.02652    -0.11053
  Kinetic  1847.17318  1845.66627  1827.42017    -0.86301     1.25448     3.76123
  Fock        0.00000     0.00000     0.00000     0.00000     0.00000     0.00000
  -------------------------------------------------------------------------------------
  Total      -5.60381    -4.95403     0.39153    -0.57448     0.46081     2.41803
  in kB     -15.46830   -13.67471     1.08076    -1.58574     1.27197     6.67454
  external pressure =       -9.35 kB  Pullay stress =        0.00 kB


 VOLUME and BASIS-vectors are now :
 -----------------------------------------------------------------------------
  energy-cutoff  :      520.00
  volume of cell :      580.43
      direct lattice vectors                 reciprocal lattice vectors
     7.770644000  0.000004000  0.000000000     0.128689463 -0.000000038  0.000000012
     0.000002000  6.729576000  0.000000000    -0.000000076  0.148597772  0.000000013
    -0.000001000 -0.000001000 11.099577000     0.000000000  0.000000000  0.090093523

  length of vectors
     7.770644000  6.729576000 11.099577000     0.128689463  0.148597772  0.090093523


 FORCES acting on ions
    electron-ion (+dipol)            ewald-force                    non-local-force                 convergence-correction
 -----------------------------------------------------------------------------------------------
   0.574E+01 -.321E+01 -.360E+03   -.574E+01 0.326E+01 0.355E+03   0.439E-01 -.437E-01 0.450E+01   -.824E-03 -.149E-04 -.845E-04
   -.658E+01 0.678E+00 -.340E+03   0.653E+01 -.624E+00 0.335E+03   0.849E-01 -.558E-01 0.453E+01   0.805E-03 0.373E-04 0.292E-04
   -.300E+01 -.701E+01 -.366E+03   0.302E+01 0.627E+01 0.362E+03   0.134E-01 0.746E+00 0.419E+01   -.606E-03 0.749E-03 0.140E-03
   0.827E+00 0.857E+01 -.359E+03   -.946E+00 -.804E+01 0.354E+03   0.152E+00 -.518E+00 0.453E+01   0.175E-03 0.853E-04 0.161E-03
   -.486E+02 -.307E+02 0.428E+03   0.473E+02 0.302E+02 -.423E+03   0.126E+01 0.472E+00 -.495E+01   -.702E-03 0.315E-03 0.584E-03
   0.422E+02 -.573E+02 0.504E+03   -.414E+02 0.559E+02 -.496E+03   -.742E+00 0.140E+01 -.857E+01   0.142E-02 0.933E-03 -.119E-02
   -.196E+02 0.678E+02 0.467E+03   0.196E+02 -.658E+02 -.461E+03   0.945E-01 -.191E+01 -.667E+01   0.825E-03 0.140E-02 0.717E-03
   0.245E+02 0.176E+02 0.439E+03   -.243E+02 -.180E+02 -.434E+03   -.125E+00 0.341E+00 -.540E+01   -.524E-03 -.433E-04 0.461E-04
   -.868E+00 0.683E+01 0.128E+02   0.767E+00 -.677E+01 -.130E+02   0.152E+00 -.459E-01 0.270E+00   0.118E-03 0.355E-03 0.764E-04
   0.266E+01 -.128E+02 0.205E+02   -.259E+01 0.128E+02 -.207E+02   -.328E-01 0.429E-01 0.172E+00   0.476E-05 0.224E-03 -.466E-04
   -.739E+01 0.651E+01 0.203E+02   0.733E+01 -.639E+01 -.203E+02   0.988E-01 -.123E+00 -.125E-02   -.147E-04 0.228E-03 -.243E-03
   0.727E+01 0.176E+01 0.402E+02   -.723E+01 -.181E+01 -.402E+02   -.294E-03 0.658E-01 0.442E-01   0.219E-03 0.379E-03 0.403E-03
   -.735E+01 -.196E+01 -.379E+03   0.735E+01 0.199E+01 0.381E+03   0.347E-01 -.204E-01 -.240E+01   -.986E-04 -.195E-03 -.769E-04
   0.646E+01 -.384E+01 -.387E+03   -.648E+01 0.382E+01 0.390E+03   0.392E-01 0.240E-01 -.236E+01   0.662E-04 -.331E-03 0.230E-03
   -.471E+01 0.498E+01 -.384E+03   0.471E+01 -.500E+01 0.386E+03   0.242E-01 0.164E-01 -.238E+01   0.642E-04 -.513E-04 -.181E-03
   0.451E+01 0.929E+00 -.376E+03   -.454E+01 -.934E+00 0.379E+03   0.546E-01 0.110E-01 -.241E+01   -.201E-03 -.730E-04 -.113E-03
   0.681E+01 0.602E+01 0.322E+03   -.649E+01 -.602E+01 -.324E+03   -.104E+01 -.982E-01 0.241E+01   -.228E-02 -.495E-03 0.622E-04
   -.203E+02 -.466E+01 0.359E+03   0.203E+02 0.479E+01 -.361E+03   0.115E+00 -.187E+00 0.227E+01   -.271E-03 -.428E-03 -.143E-03
   0.171E+02 -.377E+00 0.347E+03   -.172E+02 0.367E+00 -.350E+03   0.113E+00 0.425E-01 0.247E+01   0.144E-04 -.121E-03 0.204E-03
 -----------------------------------------------------------------------------------------------
   -.342E+00 -.169E+00 0.974E+01   0.000E+00 0.888E-14 0.341E-12   0.333E+00 0.157E+00 -.974E+01   -.181E-02 0.296E-02 0.576E-03


 POSITION                                       TOTAL-FORCE (eV/Angst)
 -----------------------------------------------------------------------------------
      0.01347      2.23971      1.33019         0.036782      0.000964      0.006866
      3.92626      2.23221      1.30129         0.030723     -0.001356     -0.021401
      1.96466      5.55485      1.35220         0.031407      0.006137     -0.005592
      5.86055      5.57814      1.32186         0.033377      0.013118      0.001448
      1.93424      1.08320      9.91073         0.011766     -0.013256     -0.018013
      5.92382      1.03987      9.85725         0.091484      0.033014     -0.025170
      3.91781      4.54533      9.85084         0.066129      0.045897      0.017251
      0.07880      4.44475      9.78029         0.019290     -0.010603     -0.002034
      0.01255     -0.00032     -0.02684         0.051752      0.020274      0.005908
      3.96103     -0.02812     11.07665         0.035503      0.001368     -0.004427
      1.98386      3.37302     11.11383         0.040384     -0.011350     -0.022383
      5.87129      3.31366     11.01723         0.040402      0.017258      0.007839
      1.96439      1.10059      3.45129         0.029548      0.003743      0.007684
      5.84348      1.09452      3.46974         0.022256      0.007886     -0.002955
      3.91075      4.45816      3.48296         0.023740      0.000291     -0.009877
      0.00905      4.46345      3.49068         0.024969      0.006254     -0.003008
      0.89398      2.45212      7.43318        -0.722292     -0.091056      0.132261
      2.15274      5.78702      7.66469         0.084322     -0.061446     -0.072258
      5.90210      5.59090      7.58962         0.048460      0.032863      0.007860
 -----------------------------------------------------------------------------------
    total drift:                               -0.010681     -0.008831     -0.000608


--------------------------------------------------------------------------------------------------------



  FREE ENERGIE OF THE ION-ELECTRON SYSTEM (eV)
  ---------------------------------------------------
  free  energy   TOTEN  =      -116.61647082 eV

  energy  without entropy=     -116.53964342  energy(sigma->0) =     -116.57805712

 d Force =-0.1873424E-02[-0.188E-02,-0.187E-02]  d Energy =-0.1871728E-02-0.170E-05
 d Force =-0.5726482E-01[-0.573E-01,-0.572E-01]  d Ewald  =-0.5726452E-01-0.301E-06


--------------------------------------------------------------------------------------------------------


    POTLOK:  cpu time    0.9351: real time    0.9375


--------------------------------------------------------------------------------------------------------


 NEB: the previous image is higher in energy: F
 NEB: the next image is higher in energy    : T
 NEB: only next energy greater

 NEB: Tangent
 ----------------------------------------------
     -0.04667     -0.00211     -0.00833
     -0.03950      0.00127      0.02711
     -0.03855     -0.00854      0.00692
     -0.04320     -0.01888     -0.00107
     -0.01555      0.01569      0.02369
     -0.11778     -0.04514      0.03410
     -0.08403     -0.06056     -0.02350
     -0.02339      0.01251      0.00227
     -0.06466     -0.02724     -0.00694
     -0.04367     -0.00416      0.00622
     -0.05202      0.01346      0.02967
     -0.05136     -0.02349     -0.01019
     -0.03726     -0.00494     -0.00952
     -0.02856     -0.00850      0.00179
     -0.03100     -0.00106      0.01415
     -0.03170     -0.00697      0.00352
      0.93151      0.12488     -0.16913
     -0.10197      0.08486      0.08995
     -0.05900     -0.04109     -0.01070

 NEB: forces: par spring, perp REAL, dneb     0.018209    0.011593    0.000000
 NEB: distance to prev, next image, angle between     0.556701    0.560343  166.817755
 NEB: projections on to tangent (spring, REAL)     0.018209   -0.775630

 stress matrix after NEB project (eV)
     -5.60381     -0.57448      2.41803
     -0.57448     -4.95403      0.46081
      2.41803      0.46081      0.39153
  FORCES: max atom, RMS     0.019089    0.004952
  FORCE total and by dimension    0.021586    0.017179
  Stress total and by dimension    8.299208    5.603807
 Quasi-Newton relaxation of ions (Broydens 2nd method)
  g(Force)  = 0.129E-03   g(Stress)= 0.000E+00

 retain information from N=  2 steps
 eigenvalues of (default step * inverse Hessian matrix)
  average eigenvalue of G=   7.2069
 eigenvalue spectrum of G is  7.2069  7.2069


--------------------------------------------------------------------------------------------------------


  
 reached required accuracy - stopping structural energy minimisation
     LOOP+:  cpu time  696.3425: real time  699.4643
    4ORBIT:  cpu time    0.0000: real time    0.0000



 total charge     

# of ion       s       p       d       f       tot
--------------------------------------------------
    1        2.183   6.373   0.943   0.044   9.543
    2        2.183   6.370   0.942   0.043   9.537
    3        2.183   6.370   0.937   0.043   9.533
    4        2.183   6.370   0.937   0.043   9.534
    5        2.201   6.383   0.995   0.044   9.623
    6        2.200   6.316   0.986   0.038   9.540
    7        2.195   6.346   0.977   0.041   9.559
    8        2.182   6.347   0.932   0.040   9.502
    9        0.864   1.384   0.000   0.000   2.248
   10        0.864   1.379   0.000   0.000   2.243
   11        0.865   1.375   0.000   0.000   2.239
   12        0.864   1.364   0.000   0.000   2.228
   13        1.508   2.833   0.019   0.000   4.360
   14        1.507   2.833   0.019   0.000   4.359
   15        1.508   2.832   0.019   0.000   4.358
   16        1.508   2.832   0.019   0.000   4.359
   17        1.509   2.810   0.015   0.000   4.334
   18        1.511   2.832   0.020   0.000   4.363
   19        1.505   2.823   0.014   0.000   4.343
--------------------------------------------------
tot         31.523  76.173   7.773   0.336 115.805




 magnetization (x)

# of ion       s       p       d       f       tot
--------------------------------------------------
    1       -0.000   0.000  -0.000   0.000  -0.000
    2       -0.000   0.000  -0.000  -0.000  -0.000
    3        0.000  -0.000  -0.000   0.000  -0.000
    4        0.000  -0.000  -0.000  -0.000  -0.000
    5       -0.000   0.000  -0.000   0.000  -0.000
    6        0.000   0.000   0.000  -0.000   0.000
    7        0.000  -0.000   0.000  -0.000   0.000
    8        0.000  -0.000  -0.000  -0.000  -0.000
    9        0.000   0.000   0.000   0.000   0.000
   10        0.000  -0.000   0.000   0.000  -0.000
   11       -0.000  -0.000   0.000   0.000  -0.000
   12        0.000  -0.000   0.000   0.000  -0.000
   13       -0.000   0.000  -0.000   0.000   0.000
   14       -0.000  -0.000  -0.000   0.000  -0.000
   15       -0.000  -0.000   0.000   0.000  -0.000
   16        0.000   0.000   0.000   0.000   0.000
   17       -0.000  -0.000   0.000   0.000  -0.000
   18        0.000  -0.000  -0.000   0.000  -0.000
   19       -0.000  -0.000   0.000   0.000  -0.000
--------------------------------------------------
tot          0.000  -0.000  -0.000  -0.000  -0.000



 total amount of memory used by VASP MPI-rank0   265329. kBytes
=======================================================================

   base      :      30000. kBytes
   nonlr-proj:       9750. kBytes
   fftplans  :      25286. kBytes
   grid      :      66476. kBytes
   one-center:        420. kBytes
   wavefun   :     133397. kBytes

  
  
 General timing and accounting informations for this job:
 ========================================================
  
                  Total CPU time used (sec):    25474.885
                            User time (sec):    24953.136
                          System time (sec):      521.750
                         Elapsed time (sec):    25596.865
  
                   Maximum memory used (kb):      481564.
                   Average memory used (kb):           0.
  
                          Minor page faults:       776742
                          Major page faults:            0
                 Voluntary context switches:         4929
