 vasp.5.4.4.18Apr17-6-g9f103f2a35 (build Feb  5 2022 00:56:52) complex           
 executed on             LinuxGNU date 2022.02.08  03:19:48
 running on   21 total cores
 each image running on    3 cores
 distrk:  each k-point on    3 cores,    1 groups
 distr:  one band on NCORES_PER_BAND=   3 cores,    1 groups


--------------------------------------------------------------------------------------------------------


 INCAR:
 POTCAR:    PAW_PBE Y_sv 25May2007                
 POTCAR:    PAW_PBE C 08Apr2002                   
 POTCAR:    PAW_PBE I 08Apr2002                   
 POTCAR:    PAW_PBE Y_sv 25May2007                
   VRHFIN =Y: 4s4p5s4d                                                          
   LEXCH  = PE                                                                  
   EATOM  =  1046.9140 eV,   76.9460 Ry                                         
                                                                                
   TITEL  = PAW_PBE Y_sv 25May2007                                              
   LULTRA =        F    use ultrasoft PP ?                                      
   IUNSCR =        1    unscreen: 0-lin 1-nonlin 2-no                           
   RPACOR =    2.200    partial core radius                                     
   POMASS =   88.906; ZVAL   =   11.000    mass and valenz                      
   RCORE  =    2.800    outmost cutoff radius                                   
   RWIGS  =    3.430; RWIGS  =    1.815    wigner-seitz radius (au A)           
   ENMAX  =  202.626; ENMIN  =  151.970 eV                                      
   RCLOC  =    2.212    cutoff for local pot                                    
   LCOR   =        T    correct aug charges                                     
   LPAW   =        T    paw PP                                                  
   EAUG   =  470.889                                                            
   DEXC   =    0.000                                                            
   RMAX   =    2.863    core radius for proj-oper                               
   RAUG   =    1.300    factor for augmentation sphere                          
   RDEP   =    2.926    radius for radial grids                                 
   RDEPT  =    2.280    core radius for aug-charge                              
                                                                                
   Atomic configuration                                                         
   11 entries                                                                   
     n  l   j            E        occ.                                          
     1  0  0.50    -16863.0720   2.0000                                         
     2  0  0.50     -2309.2881   2.0000                                         
     2  1  1.50     -2055.5536   6.0000                                         
     3  0  0.50      -367.1837   2.0000                                         
     3  1  1.50      -284.8912   6.0000                                         
     3  2  2.50      -149.4324  10.0000                                         
     4  0  0.50       -46.3345   2.0000                                         
     5  0  0.50        -3.6387   1.0000                                         
     4  1  1.50       -26.3769   6.0000                                         
     4  2  2.50        -1.6291   2.0000                                         
     4  3  2.50        -1.3606   0.0000                                         
   Description                                                                  
     l       E           TYP  RCUT    TYP  RCUT                                 
     0    -46.3344714     23  2.600                                             
     0     -3.6387002     23  2.700                                             
     1    -26.3769044     23  2.600                                             
     1    -27.7374870     23  2.600                                             
     2     -1.6291019     23  2.600                                             
     2      0.1354037     23  2.600                                             
     3     -1.3605826     23  2.800                                             
  local pseudopotential read in
  partial core-charges read in
  partial kinetic energy density read in
  atomic valenz-charges read in
  non local Contribution for L=           0  read in
    real space projection operators read in
  non local Contribution for L=           0  read in
    real space projection operators read in
  non local Contribution for L=           1  read in
    real space projection operators read in
  non local Contribution for L=           1  read in
    real space projection operators read in
  non local Contribution for L=           2  read in
    real space projection operators read in
  non local Contribution for L=           2  read in
    real space projection operators read in
  non local Contribution for L=           3  read in
    real space projection operators read in
    PAW grid and wavefunctions read in

   number of l-projection  operators is LMAX  =           7
   number of lm-projection operators is LMMAX =          25

 POTCAR:    PAW_PBE C 08Apr2002                   
   VRHFIN =C: s2p2                                                              
   LEXCH  = PE                                                                  
   EATOM  =   147.1560 eV,   10.8157 Ry                                         
                                                                                
   TITEL  = PAW_PBE C 08Apr2002                                                 
   LULTRA =        F    use ultrasoft PP ?                                      
   IUNSCR =        1    unscreen: 0-lin 1-nonlin 2-no                           
   RPACOR =    1.200    partial core radius                                     
   POMASS =   12.011; ZVAL   =    4.000    mass and valenz                      
   RCORE  =    1.500    outmost cutoff radius                                   
   RWIGS  =    1.630; RWIGS  =    0.863    wigner-seitz radius (au A)           
   ENMAX  =  400.000; ENMIN  =  300.000 eV                                      
   ICORE  =        2    local potential                                         
   LCOR   =        T    correct aug charges                                     
   LPAW   =        T    paw PP                                                  
   EAUG   =  644.873                                                            
   DEXC   =    0.000                                                            
   RMAX   =    1.529    core radius for proj-oper                               
   RAUG   =    1.300    factor for augmentation sphere                          
   RDEP   =    1.501    radius for radial grids                                 
   RDEPT  =    1.300    core radius for aug-charge                              
                                                                                
   Atomic configuration                                                         
    4 entries                                                                   
     n  l   j            E        occ.                                          
     1  0  0.50      -273.3789   2.0000                                         
     2  0  0.50       -13.7508   2.0000                                         
     2  1  0.50        -5.2854   2.0000                                         
     3  2  1.50        -5.4423   0.0000                                         
   Description                                                                  
     l       E           TYP  RCUT    TYP  RCUT                                 
     0    -13.7508458     23  1.200                                             
     0     -8.2022199     23  1.200                                             
     1     -5.2854383     23  1.500                                             
     1     34.0145650     23  1.500                                             
     2     -5.4423304      7  1.500                                             
  local pseudopotential read in
  partial core-charges read in
  partial kinetic energy density read in
  atomic valenz-charges read in
  non local Contribution for L=           0  read in
    real space projection operators read in
  non local Contribution for L=           0  read in
    real space projection operators read in
  non local Contribution for L=           1  read in
    real space projection operators read in
  non local Contribution for L=           1  read in
    real space projection operators read in
    PAW grid and wavefunctions read in

   number of l-projection  operators is LMAX  =           4
   number of lm-projection operators is LMMAX =           8

 POTCAR:    PAW_PBE I 08Apr2002                   
   VRHFIN =I : s2p5                                                             
   LEXCH  = PE                                                                  
   EATOM  =   315.8678 eV,   23.2156 Ry                                         
                                                                                
   TITEL  = PAW_PBE I 08Apr2002                                                 
   LULTRA =        F    use ultrasoft PP ?                                      
   IUNSCR =        1    unscreen: 0-lin 1-nonlin 2-no                           
   RPACOR =    2.200    partial core radius                                     
   POMASS =  126.904; ZVAL   =    7.000    mass and valenz                      
   RCORE  =    2.300    outmost cutoff radius                                   
   RWIGS  =    2.810; RWIGS  =    1.487    wigner-seitz radius (au A)           
   ENMAX  =  175.647; ENMIN  =  131.735 eV                                      
   ICORE  =        3    local potential                                         
   LCOR   =        T    correct aug charges                                     
   LPAW   =        T    paw PP                                                  
   EAUG   =  370.139                                                            
   DEXC   =    0.000                                                            
   RMAX   =    2.359    core radius for proj-oper                               
   RAUG   =    1.300    factor for augmentation sphere                          
   RDEP   =    2.392    radius for radial grids                                 
   RDEPT  =    2.170    core radius for aug-charge                              
                                                                                
   Atomic configuration                                                         
   13 entries                                                                   
     n  l   j            E        occ.                                          
     1  0  0.50    -32976.3739   2.0000                                         
     2  0  0.50     -5094.5933   2.0000                                         
     2  1  1.50     -4572.0131   6.0000                                         
     3  0  0.50     -1028.2813   2.0000                                         
     3  1  1.50      -859.0250   6.0000                                         
     3  2  2.50      -605.7620  10.0000                                         
     4  0  0.50      -180.5540   2.0000                                         
     4  1  1.50      -127.5306   6.0000                                         
     4  2  2.50       -50.2720  10.0000                                         
     5  0  0.50       -17.4058   2.0000                                         
     5  1  0.50        -7.0851   5.0000                                         
     5  2  1.50        -7.0750   0.0000                                         
     4  3  2.50        -7.0750   0.0000                                         
   Description                                                                  
     l       E           TYP  RCUT    TYP  RCUT                                 
     0    -17.4058016     23  2.300                                             
     0    -18.7663842     23  2.300                                             
     1     -7.0850686     23  2.300                                             
     1     -4.2150896     23  2.300                                             
     2     -7.0750295     23  2.300                                             
     3     -1.3605826     23  2.300                                             
  local pseudopotential read in
  partial core-charges read in
  partial kinetic energy density read in
  atomic valenz-charges read in
  non local Contribution for L=           0  read in
    real space projection operators read in
  non local Contribution for L=           0  read in
    real space projection operators read in
  non local Contribution for L=           1  read in
    real space projection operators read in
  non local Contribution for L=           1  read in
    real space projection operators read in
  non local Contribution for L=           2  read in
    real space projection operators read in
    PAW grid and wavefunctions read in

   number of l-projection  operators is LMAX  =           5
   number of lm-projection operators is LMMAX =          13

 Optimization of the real space projectors (new method)

 maximal supplied QI-value         = 13.42
 optimisation between [QCUT,QGAM] = [ 11.67, 23.35] = [ 38.16,152.62] Ry 
 Optimized for a Real-space Cutoff    1.68 Angstroem

   l    n(q)    QCUT    max X(q) W(low)/X(q) W(high)/X(q)  e(spline) 
   0     12    11.673    14.902    0.22E-04    0.24E-05    0.52E-07
   0     12    11.673     9.294    0.34E-04    0.58E-05    0.89E-07
   1     11    11.673    69.520    0.10E-04    0.47E-04    0.49E-06
   1     11    11.673    72.085    0.10E-04    0.48E-04    0.50E-06
   2     11    11.673    62.934    0.94E-04    0.14E-04    0.82E-06
   2     11    11.673    49.749    0.91E-04    0.13E-04    0.79E-06
   3     10    11.673     8.311    0.92E-04    0.21E-04    0.59E-06
 Optimization of the real space projectors (new method)

 maximal supplied QI-value         = 25.13
 optimisation between [QCUT,QGAM] = [ 11.56, 23.12] = [ 37.43,149.72] Ry 
 Optimized for a Real-space Cutoff    1.04 Angstroem

   l    n(q)    QCUT    max X(q) W(low)/X(q) W(high)/X(q)  e(spline) 
   0      7    11.561   115.676    0.20E-03    0.60E-03    0.21E-06
   0      7    11.561    87.132    0.20E-03    0.59E-03    0.21E-06
   1      7    11.561     4.429    0.23E-03    0.35E-03    0.15E-06
   1      7    11.561     2.733    0.18E-03    0.25E-03    0.12E-06
 Optimization of the real space projectors (new method)

 maximal supplied QI-value         = 16.25
 optimisation between [QCUT,QGAM] = [ 11.54, 23.24] = [ 37.28,151.24] Ry 
 Optimized for a Real-space Cutoff    1.40 Angstroem

   l    n(q)    QCUT    max X(q) W(low)/X(q) W(high)/X(q)  e(spline) 
   0     10    11.539   194.483    0.48E-04    0.89E-04    0.13E-06
   0     10    11.539   190.334    0.47E-04    0.86E-04    0.12E-06
   1      9    11.539   116.687    0.15E-03    0.73E-04    0.13E-06
   1      9    11.539    88.696    0.15E-03    0.72E-04    0.13E-06
   2      9    11.539     4.877    0.99E-05    0.58E-04    0.56E-07
  PAW_PBE Y_sv 25May2007                :
 energy of atom  1       EATOM=-1046.9140
 kinetic energy error for atom=    0.0008 (will be added to EATOM!!)
  PAW_PBE C 08Apr2002                   :
 energy of atom  2       EATOM= -147.1560
 kinetic energy error for atom=    0.0071 (will be added to EATOM!!)
  PAW_PBE I 08Apr2002                   :
 energy of atom  3       EATOM= -315.8678
 kinetic energy error for atom=    0.0009 (will be added to EATOM!!)


 POSCAR: Y8 C4 I7                                
  positions in direct lattice
  No initial velocities read in
 exchange correlation table for  LEXCH =        8
   RHO(1)=    0.500       N(1)  =     2000
   RHO(2)=  100.500       N(2)  =     4000

 VTST: version 3.2, (02/03/18)

 CHAIN: initializing optimizer
 
 OPT: Using VASP QUASI-newton optimizer
 CHAIN: Read ICHAIN            0
 CHAIN: Running the NEB
 NEB:          SPRING     -5.000000
 NEB:          LCLIMB      T
 NEB:     LTANGENTOLD      F
 NEB:           LDNEB      F
 NEB:        LDNEBORG      F
 NEB:        LNEBCELL      F
 NEB:          EFIRST      0.000000
 NEB:           ELAST      0.000000

 POSCAR: Y8 C4 I7                                
  positions in direct lattice
  No initial velocities read in

 POSCAR: Y8 C4 I7                                
  positions in direct lattice
  No initial velocities read in



--------------------------------------------------------------------------------------------------------


 ion  position               nearest neighbor table
   1  0.002  0.336  0.120-   9 2.61  12 2.62  11 2.62  16 3.09  13 3.10  14 3.10   5 3.39   6 3.40
                             8 3.43   2 3.86   4 3.86   3 3.87   4 3.90   2 3.91   3 3.92
   2  0.505  0.335  0.116-  11 2.60  12 2.60  10 2.61  14 3.12  15 3.12  13 3.13   5 3.39   7 3.43
                             6 3.49   4 3.86   1 3.86   3 3.87   4 3.89   3 3.91   1 3.91
   3  0.254  0.832  0.121-  11 2.62   9 2.64  10 2.66  15 3.08  13 3.08  16 3.10   5 3.34   7 3.39
                             8 3.44   4 3.87   2 3.87   1 3.87   4 3.90   2 3.91   1 3.92
   4  0.752  0.832  0.120-  10 2.60   9 2.62  12 2.64  16 3.09  15 3.10  14 3.11   7 3.38   8 3.43
                             6 3.46   2 3.86   1 3.86   3 3.87   2 3.89   3 3.90   1 3.90
   5  0.249  0.157  0.893-   9 2.48  10 2.55  11 2.58  17 3.02  18 3.21   3 3.34   1 3.39   2 3.39
                             6 3.73   7 3.78   8 3.80   8 3.94   7 4.04   6 4.04
   6  0.769  0.166  0.883-   9 2.49  12 2.56  10 2.63  19 3.10  17 3.38   1 3.40   4 3.46   2 3.49
                             5 3.73   8 3.81   8 3.84   7 3.87   7 4.02   5 4.04
   7  0.504  0.679  0.887-  10 2.48  12 2.58  11 2.60  18 3.08  19 3.14   4 3.38   3 3.39   2 3.43
                             5 3.78   6 3.87   8 3.88   8 3.89   6 4.02   5 4.04
   8  0.003  0.669  0.886-  12 2.55  11 2.58   9 2.59  18 3.16  19 3.19  17 3.30   4 3.43   1 3.43
                             3 3.44   5 3.80   6 3.81   6 3.84   7 3.88   7 3.89   5 3.94
   9  0.003  0.004  1.000-   5 2.48   6 2.49   8 2.59   1 2.61   4 2.62   3 2.64
  10  0.508  0.001  0.997-   7 2.48   5 2.55   4 2.60   2 2.61   6 2.63   3 2.66
  11  0.253  0.499  0.998-   8 2.58   5 2.58   2 2.60   7 2.60   3 2.62   1 2.62
  12  0.754  0.499  0.994-   8 2.55   6 2.56   7 2.58   2 2.60   1 2.62   4 2.64
  13  0.254  0.166  0.311-   3 3.08   1 3.10   2 3.13
  14  0.752  0.168  0.313-   1 3.10   4 3.11   2 3.12
  15  0.503  0.666  0.312-   3 3.08   4 3.10   2 3.12
  16  0.001  0.669  0.313-   4 3.09   1 3.09   3 3.10
  17  0.060  0.325  0.678-   5 3.02   8 3.30   6 3.38
  18  0.261  0.824  0.687-   7 3.08   8 3.16   5 3.21
  19  0.750  0.841  0.685-   6 3.10   7 3.14   8 3.19


IMPORTANT INFORMATION: All symmetrisations will be switched off!
NOSYMM: (Re-)initialisation of all symmetry stuff for point group C_1.




Automatic generation of k-mesh.
 generate k-points for:    2    2    2
Space group operators:
 irot       det(A)        alpha          n_x          n_y          n_z        tau_x        tau_y        tau_z
    1     1.000000     0.000000     1.000000     0.000000     0.000000     0.000000     0.000000     0.000000
 
 Subroutine IBZKPT returns following result:
 ===========================================
 
 Found      8 irreducible k-points:
 
 Following reciprocal coordinates:
            Coordinates               Weight
  0.000000  0.000000  0.000000      1.000000
  0.500000  0.000000  0.000000      1.000000
  0.000000  0.500000  0.000000      1.000000
  0.500000  0.500000  0.000000      1.000000
  0.000000  0.000000  0.500000      1.000000
  0.500000  0.000000  0.500000      1.000000
  0.000000  0.500000  0.500000      1.000000
  0.500000  0.500000  0.500000      1.000000
 
 Following cartesian coordinates:
            Coordinates               Weight
  0.000000  0.000000  0.000000      1.000000
  0.064345 -0.000000  0.000000      1.000000
 -0.000000  0.074299  0.000000      1.000000
  0.064345  0.074299  0.000000      1.000000
  0.000000  0.000000  0.045047      1.000000
  0.064345 -0.000000  0.045047      1.000000
 -0.000000  0.074299  0.045047      1.000000
  0.064345  0.074299  0.045047      1.000000
 


--------------------------------------------------------------------------------------------------------




 Dimension of arrays:
   k-points           NKPTS =      8   k-points in BZ     NKDIM =      8   number of bands    NBANDS=     97
   number of dos      NEDOS =    301   number of ions     NIONS =     19
   non local maximal  LDIM  =      7   non local SUM 2l+1 LMDIM =     25
   total plane-waves  NPLWV = 252000
   max r-space proj   IRMAX =   8612   max aug-charges    IRDMAX=  31495
   dimension x,y,z NGX =    60 NGY =   50 NGZ =   84
   dimension x,y,z NGXF=   120 NGYF=  100 NGZF=  168
   support grid    NGXF=   120 NGYF=  100 NGZF=  168
   ions per type =               8   4   7
   NGX,Y,Z   is equivalent  to a cutoff of  12.84, 12.35, 12.58 a.u.
   NGXF,Y,Z  is equivalent  to a cutoff of  25.67, 24.70, 25.16 a.u.

 SYSTEM =  unknown system                          
 POSCAR =  Y8 C4 I7                                

 Startparameter for this run:
   NWRITE =      2    write-flag & timer
   PREC   = accura    normal or accurate (medium, high low for compatibility)
   ISTART =      0    job   : 0-new  1-cont  2-samecut
   ICHARG =      1    charge: 1-file 2-atom 10-const
   ISPIN  =      2    spin polarized calculation?
   LNONCOLLINEAR =      F non collinear calculations
   LSORBIT =      F    spin-orbit coupling
   INIWAV =      1    electr: 0-lowe 1-rand  2-diag
   LASPH  =      F    aspherical Exc in radial PAW
   METAGGA=      F    non-selfconsistent MetaGGA calc.

 Electronic Relaxation 1
   ENCUT  =  520.0 eV  38.22 Ry    6.18 a.u.  14.45 12.51 20.64*2*pi/ulx,y,z
   ENINI  =  520.0     initial cutoff
   ENAUG  =  644.9 eV  augmentation charge cutoff
   NELM   =    200;   NELMIN=  4; NELMDL= -5     # of ELM steps 
   EDIFF  = 0.1E-04   stopping-criterion for ELM
   LREAL  =      T    real-space projection
   NLSPLINE    = F    spline interpolate recip. space projectors
   LCOMPAT=      F    compatible to vasp.4.4
   GGA_COMPAT  = T    GGA compatible to vasp.4.4-vasp.4.6
   LMAXPAW     = -100 max onsite density
   LMAXMIX     =    2 max onsite mixed and CHGCAR
   VOSKOWN=      0    Vosko Wilk Nusair interpolation
   ROPT   =   -0.00025  -0.00025  -0.00025
 Ionic relaxation
   EDIFFG = -.2E-01   stopping-criterion for IOM
   NSW    =     99    number of steps for IOM
   NBLOCK =      1;   KBLOCK =     99    inner block; outer block 
   IBRION =      1    ionic relax: 0-MD 1-quasi-New 2-CG
   NFREE  =      0    steps in history (QN), initial steepest desc. (CG)
   ISIF   =      2    stress and relaxation
   IWAVPR =     11    prediction:  0-non 1-charg 2-wave 3-comb
   ISYM   =      0    0-nonsym 1-usesym 2-fastsym
   LCORR  =      T    Harris-Foulkes like correction to forces

   POTIM  = 0.5000    time-step for ionic-motion
   TEIN   =    0.0    initial temperature
   TEBEG  =    0.0;   TEEND  =   0.0 temperature during run
   SMASS  =  -3.00    Nose mass-parameter (am)
   estimated Nose-frequenzy (Omega)   =  0.10E-29 period in steps =****** mass=  -0.138E-26a.u.
   SCALEE = 1.0000    scale energy and forces
   NPACO  =    256;   APACO  = 16.0  distance and # of slots for P.C.
   PSTRESS=    0.0 pullay stress

  Mass of Ions in am
   POMASS =  88.91 12.01126.90
  Ionic Valenz
   ZVAL   =  11.00  4.00  7.00
  Atomic Wigner-Seitz radii
   RWIGS  =  -1.00 -1.00 -1.00
  virtual crystal weights 
   VCA    =   1.00  1.00  1.00
   NELECT =     153.0000    total number of electrons
   NUPDOWN=      -1.0000    fix difference up-down

 DOS related values:
   EMIN   =  10.00;   EMAX   =-10.00  energy-range for DOS
   EFERMI =   0.00
   ISMEAR =     0;   SIGMA  =   0.20  broadening in eV -4-tet -1-fermi 0-gaus

 Electronic relaxation 2 (details)
   IALGO  =     38    algorithm
   LDIAG  =      T    sub-space diagonalisation (order eigenvalues)
   LSUBROT=      F    optimize rotation matrix (better conditioning)
   TURBO    =      0    0=normal 1=particle mesh
   IRESTART =      0    0=no restart 2=restart with 2 vectors
   NREBOOT  =      0    no. of reboots
   NMIN     =      0    reboot dimension
   EREF     =   0.00    reference energy to select bands
   IMIX   =      4    mixing-type and parameters
     AMIX     =   0.40;   BMIX     =  1.00
     AMIX_MAG =   1.60;   BMIX_MAG =  1.00
     AMIN     =   0.10
     WC   =   100.;   INIMIX=   1;  MIXPRE=   1;  MAXMIX= -45

 Intra band minimization:
   WEIMIN = 0.0010     energy-eigenvalue tresh-hold
   EBREAK =  0.26E-07  absolut break condition
   DEPER  =   0.30     relativ break condition  

   TIME   =   0.40     timestep for ELM

  volume/ion in A,a.u.               =      30.55       206.16
  Fermi-wavevector in a.u.,A,eV,Ry     =   1.049675  1.983598 14.991144  1.101818
  Thomas-Fermi vector in A             =   2.184647

 Write flags
   LWAVE        =      F    write WAVECAR
   LDOWNSAMPLE  =      F    k-point downsampling of WAVECAR
   LCHARG       =      T    write CHGCAR
   LVTOT        =      F    write LOCPOT, total local potential
   LVHAR        =      F    write LOCPOT, Hartree potential only
   LELF         =      F    write electronic localiz. function (ELF)
   LORBIT       =     11    0 simple, 1 ext, 2 COOP (PROOUT), +10 PAW based schemes


 Dipole corrections
   LMONO  =      F    monopole corrections only (constant potential shift)
   LDIPOL =      F    correct potential (dipole corrections)
   IDIPOL =      0    1-x, 2-y, 3-z, 4-all directions 
   EPSILON=  1.0000000 bulk dielectric constant

 Exchange correlation treatment:
   GGA     =    --    GGA type
   LEXCH   =     8    internal setting for exchange type
   VOSKOWN=      0    Vosko Wilk Nusair interpolation
   LHFCALC =     F    Hartree Fock is set to
   LHFONE  =     F    Hartree Fock one center treatment
   AEXX    =    0.0000 exact exchange contribution

 Linear response parameters
   LEPSILON=     F    determine dielectric tensor
   LRPA    =     F    only Hartree local field effects (RPA)
   LNABLA  =     F    use nabla operator in PAW spheres
   LVEL    =     F    velocity operator in full k-point grid
   LINTERFAST=   F  fast interpolation
   KINTER  =     0    interpolate to denser k-point grid
   CSHIFT  =0.1000    complex shift for real part using Kramers Kronig
   OMEGAMAX=  -1.0    maximum frequency
   DEG_THRESHOLD= 0.2000000E-02 threshold for treating states as degnerate
   RTIME   =   -0.100 relaxation time in fs
  (WPLASMAI=    0.000 imaginary part of plasma frequency in eV, 0.658/RTIME)
   DFIELD  = 0.0000000 0.0000000 0.0000000 field for delta impulse in time

 Orbital magnetization related:
   ORBITALMAG=     F  switch on orbital magnetization
   LCHIMAG   =     F  perturbation theory with respect to B field
   DQ        =  0.001000  dq finite difference perturbation B field
   LLRAUG    =     F  two centre corrections for induced B field



--------------------------------------------------------------------------------------------------------


 quasi-Newton-method for relaxation of ions
 charge density and potential will be updated during run
 spin polarized calculation
 Variant of blocked Davidson
 Davidson routine will perform the subspace rotation
 perform sub-space diagonalisation
    after iterative eigenvector-optimisation
 modified Broyden-mixing scheme, WC =      100.0
 initial mixing is a Kerker type mixing with AMIX =  0.4000 and BMIX =      1.0000
 Hartree-type preconditioning will be used
 using additional bands           20
 real space projection scheme for non local part
 use partial core corrections
 calculate Harris-corrections to forces   (improved forces if not selfconsistent)
 use gradient corrections 
 use of overlap-Matrix (Vanderbilt PP)
 Gauss-broadening in eV      SIGMA  =   0.20


--------------------------------------------------------------------------------------------------------


  energy-cutoff  :      520.00
  volume of cell :      580.43
      direct lattice vectors                 reciprocal lattice vectors
     7.770644000  0.000004000  0.000000000     0.128689463 -0.000000038  0.000000012
     0.000002000  6.729576000  0.000000000    -0.000000076  0.148597772  0.000000013
    -0.000001000 -0.000001000 11.099577000     0.000000000  0.000000000  0.090093523

  length of vectors
     7.770644000  6.729576000 11.099577000     0.128689463  0.148597772  0.090093523



 k-points in units of 2pi/SCALE and weight: read from INCAR                         
   0.00000000  0.00000000  0.00000000       0.125
   0.06434473 -0.00000002  0.00000001       0.125
  -0.00000004  0.07429889  0.00000001       0.125
   0.06434469  0.07429887  0.00000001       0.125
   0.00000000  0.00000000  0.04504676       0.125
   0.06434473 -0.00000002  0.04504677       0.125
  -0.00000004  0.07429889  0.04504677       0.125
   0.06434469  0.07429887  0.04504677       0.125

 k-points in reciprocal lattice and weights: read from INCAR                         
   0.00000000  0.00000000  0.00000000       0.125
   0.50000000  0.00000000  0.00000000       0.125
   0.00000000  0.50000000  0.00000000       0.125
   0.50000000  0.50000000  0.00000000       0.125
   0.00000000  0.00000000  0.50000000       0.125
   0.50000000  0.00000000  0.50000000       0.125
   0.00000000  0.50000000  0.50000000       0.125
   0.50000000  0.50000000  0.50000000       0.125

 position of ions in fractional coordinates (direct lattice) 
   0.00173300  0.33597900  0.12036900
   0.50528700  0.33500500  0.11573000
   0.25440700  0.83183500  0.12051200
   0.75240700  0.83218700  0.11969800
   0.24862000  0.15705100  0.89310200
   0.76880000  0.16596800  0.88293600
   0.50407100  0.67916100  0.88746300
   0.00338300  0.66865700  0.88571000
   0.00253500  0.00376200  0.99990200
   0.50798400  0.00080900  0.99663700
   0.25341700  0.49903600  0.99811000
   0.75449600  0.49864600  0.99435700
   0.25424300  0.16600900  0.31061200
   0.75165100  0.16791200  0.31288700
   0.50282300  0.66629800  0.31242800
   0.00077400  0.66864600  0.31268600
   0.05995700  0.32538100  0.67772400
   0.26111000  0.82376100  0.68659400
   0.75011800  0.84057000  0.68534000

 position of ions in cartesian coordinates  (Angst):
   0.01346708  2.26099610  1.33604498
   3.92640595  2.25444351  1.28455405
   1.97690777  5.59789775  1.33763222
   5.84668848  5.60026855  1.32859717
   1.93193693  1.05688674  9.91305442
   5.97407056  1.11689646  9.80021612
   3.91695676  4.57046669  9.85046390
   0.02628854  4.49977723  9.83100634
   0.01969759  0.02531568 11.09848924
   3.94736183  0.00544526 11.06224912
   1.96921329  3.35830070 11.07859880
   5.86291982  3.35567818 11.03694209
   1.97563186  1.11717089  3.44766181
   5.84081236  1.12997926  3.47291335
   3.90725955  4.48390473  3.46781864
   0.00601550  4.49970376  3.47068233
   0.46590448  2.18967573  7.52244972
   2.02899382  5.54356261  7.62090297
   5.82890093  5.65668201  7.60698410



--------------------------------------------------------------------------------------------------------


 k-point  1 :   0.0000 0.0000 0.0000  plane waves:   15669
 k-point  2 :   0.5000 0.0000 0.0000  plane waves:   15660
 k-point  3 :   0.0000 0.5000 0.0000  plane waves:   15674
 k-point  4 :   0.5000 0.5000 0.0000  plane waves:   15604
 k-point  5 :   0.0000 0.0000 0.5000  plane waves:   15634
 k-point  6 :   0.5000 0.0000 0.5000  plane waves:   15620
 k-point  7 :   0.0000 0.5000 0.5000  plane waves:   15576
 k-point  8 :   0.5000 0.5000 0.5000  plane waves:   15592

 maximum and minimum number of plane-waves per node :      5250     5163

 maximum number of plane-waves:     15674
 maximum index in each direction: 
   IXMAX=   14   IYMAX=   12   IZMAX=   20
   IXMIN=  -14   IYMIN=  -13   IZMIN=  -21


 real space projection operators:
  total allocation   :      16950.22 KBytes
  max/ min on nodes  :       5674.23       5632.83


 parallel 3D FFT for wavefunctions:
    minimum data exchange during FFTs selected (reduces bandwidth)
 parallel 3D FFT for charge:
    minimum data exchange during FFTs selected (reduces bandwidth)


 total amount of memory used by VASP MPI-rank0   265330. kBytes
=======================================================================

   base      :      30000. kBytes
   nonlr-proj:       9751. kBytes
   fftplans  :      25286. kBytes
   grid      :      66476. kBytes
   one-center:        420. kBytes
   wavefun   :     133397. kBytes

     INWAV:  cpu time    0.0001: real time    0.0001
 Broyden mixing: mesh for mixing (old mesh)
   NGX = 29   NGY = 25   NGZ = 41
  (NGX  =120   NGY  =100   NGZ  =168)
  gives a total of  29725 points

 initial charge density was supplied:
 charge density of overlapping atoms calculated
 number of electron     153.0000000 magnetization      11.4000000
 keeping initial charge density in first step


--------------------------------------------------------------------------------------------------------


 Maximum index for non-local projection operator         2788
 Maximum index for augmentation-charges        10174 (set IRDMAX)


--------------------------------------------------------------------------------------------------------


 First call to EWALD:  gamma=   0.212
 Maximum number of real-space cells 3x 3x 2
 Maximum number of reciprocal cells 3x 2x 3

    FEWALD:  cpu time    0.0018: real time    0.0018


--------------------------------------- Iteration      1(   1)  ---------------------------------------


    POTLOK:  cpu time    2.3960: real time    4.8195
    SETDIJ:  cpu time    0.2296: real time    0.4644
     EDDAV:  cpu time  114.7398: real time  231.2953
       DOS:  cpu time    0.0045: real time    0.0175
    --------------------------------------------
      LOOP:  cpu time  117.3699: real time  236.5968

 eigenvalue-minimisations  :  3104
 total energy-change (2. order) : 0.1044871E+04  (-0.6855287E+04)
 number of electron     153.0000000 magnetization      11.4000000
 augmentation part      153.0000000 magnetization      11.4000000

 Free energy of the ion-electron system (eV)
  ---------------------------------------------------
  alpha Z        PSCENC =       490.14769152
  Ewald energy   TEWEN  =     -5495.35240251
  -Hartree energ DENC   =     -5190.28850621
  -exchange      EXHF   =         0.00000000
  -V(xc)+E(xc)   XCENC  =       295.74531682
  PAW double counting   =      8755.10086986    -8465.77839650
  entropy T*S    EENTRO =        -0.12848159
  eigenvalues    EBANDS =      -519.54457373
  atomic energy  EATOM  =     11174.96942390
  Solvation  Ediel_sol  =         0.00000000
  ---------------------------------------------------
  free energy    TOTEN  =      1044.87094157 eV

  energy without entropy =     1044.99942316  energy(sigma->0) =     1044.93518236


--------------------------------------------------------------------------------------------------------




--------------------------------------- Iteration      1(   2)  ---------------------------------------


     EDDAV:  cpu time  115.9375: real time  233.7488
       DOS:  cpu time    0.0043: real time    0.0173
    --------------------------------------------
      LOOP:  cpu time  115.9418: real time  233.7661

 eigenvalue-minimisations  :  3665
 total energy-change (2. order) :-0.1055806E+04  (-0.1012647E+04)
 number of electron     153.0000000 magnetization      11.4000000
 augmentation part      153.0000000 magnetization      11.4000000

 Free energy of the ion-electron system (eV)
  ---------------------------------------------------
  alpha Z        PSCENC =       490.14769152
  Ewald energy   TEWEN  =     -5495.35240251
  -Hartree energ DENC   =     -5190.28850621
  -exchange      EXHF   =         0.00000000
  -V(xc)+E(xc)   XCENC  =       295.74531682
  PAW double counting   =      8755.10086986    -8465.77839650
  entropy T*S    EENTRO =        -0.09125678
  eigenvalues    EBANDS =     -1575.38810535
  atomic energy  EATOM  =     11174.96942390
  Solvation  Ediel_sol  =         0.00000000
  ---------------------------------------------------
  free energy    TOTEN  =       -10.93536524 eV

  energy without entropy =      -10.84410846  energy(sigma->0) =      -10.88973685


--------------------------------------------------------------------------------------------------------




--------------------------------------- Iteration      1(   3)  ---------------------------------------


     EDDAV:  cpu time  141.6612: real time  285.6026
       DOS:  cpu time    0.0043: real time    0.0043
    --------------------------------------------
      LOOP:  cpu time  141.6655: real time  285.6069

 eigenvalue-minimisations  :  4284
 total energy-change (2. order) :-0.1153247E+03  (-0.1135406E+03)
 number of electron     153.0000000 magnetization      11.4000000
 augmentation part      153.0000000 magnetization      11.4000000

 Free energy of the ion-electron system (eV)
  ---------------------------------------------------
  alpha Z        PSCENC =       490.14769152
  Ewald energy   TEWEN  =     -5495.35240251
  -Hartree energ DENC   =     -5190.28850621
  -exchange      EXHF   =         0.00000000
  -V(xc)+E(xc)   XCENC  =       295.74531682
  PAW double counting   =      8755.10086986    -8465.77839650
  entropy T*S    EENTRO =        -0.05567920
  eigenvalues    EBANDS =     -1690.74836511
  atomic energy  EATOM  =     11174.96942390
  Solvation  Ediel_sol  =         0.00000000
  ---------------------------------------------------
  free energy    TOTEN  =      -126.26004742 eV

  energy without entropy =     -126.20436822  energy(sigma->0) =     -126.23220782


--------------------------------------------------------------------------------------------------------




--------------------------------------- Iteration      1(   4)  ---------------------------------------


     EDDAV:  cpu time  184.6467: real time  372.2731
       DOS:  cpu time    0.0047: real time    0.0177
    --------------------------------------------
      LOOP:  cpu time  184.6513: real time  372.2908

 eigenvalue-minimisations  :  5328
 total energy-change (2. order) :-0.1168152E+02  (-0.1164403E+02)
 number of electron     153.0000000 magnetization      11.4000000
 augmentation part      153.0000000 magnetization      11.4000000

 Free energy of the ion-electron system (eV)
  ---------------------------------------------------
  alpha Z        PSCENC =       490.14769152
  Ewald energy   TEWEN  =     -5495.35240251
  -Hartree energ DENC   =     -5190.28850621
  -exchange      EXHF   =         0.00000000
  -V(xc)+E(xc)   XCENC  =       295.74531682
  PAW double counting   =      8755.10086986    -8465.77839650
  entropy T*S    EENTRO =        -0.05737268
  eigenvalues    EBANDS =     -1702.42818947
  atomic energy  EATOM  =     11174.96942390
  Solvation  Ediel_sol  =         0.00000000
  ---------------------------------------------------
  free energy    TOTEN  =      -137.94156526 eV

  energy without entropy =     -137.88419258  energy(sigma->0) =     -137.91287892


--------------------------------------------------------------------------------------------------------




--------------------------------------- Iteration      1(   5)  ---------------------------------------


     EDDAV:  cpu time  133.6103: real time  268.9886
       DOS:  cpu time    0.0035: real time    0.0165
    CHARGE:  cpu time    5.0862: real time   10.2056
    MIXING:  cpu time    0.0252: real time    0.0383
    --------------------------------------------
      LOOP:  cpu time  138.7253: real time  279.2491

 eigenvalue-minimisations  :  4944
 total energy-change (2. order) :-0.8770759E+00  (-0.8766403E+00)
 number of electron     153.0000004 magnetization       7.1665998
 augmentation part        6.4340906 magnetization       6.7606526

 Broyden mixing:
  rms(total) = 0.78201E+01    rms(broyden)= 0.78201E+01
  rms(prec ) = 0.82573E+01
  weight for this iteration     100.00

 Free energy of the ion-electron system (eV)
  ---------------------------------------------------
  alpha Z        PSCENC =       490.14769152
  Ewald energy   TEWEN  =     -5495.35240251
  -Hartree energ DENC   =     -5190.28850621
  -exchange      EXHF   =         0.00000000
  -V(xc)+E(xc)   XCENC  =       295.74531682
  PAW double counting   =      8755.10086986    -8465.77839650
  entropy T*S    EENTRO =        -0.05719065
  eigenvalues    EBANDS =     -1703.30544737
  atomic energy  EATOM  =     11174.96942390
  Solvation  Ediel_sol  =         0.00000000
  ---------------------------------------------------
  free energy    TOTEN  =      -138.81864113 eV

  energy without entropy =     -138.76145048  energy(sigma->0) =     -138.79004581


--------------------------------------------------------------------------------------------------------




--------------------------------------- Iteration      1(   6)  ---------------------------------------


    POTLOK:  cpu time    1.5209: real time    3.0601
    SETDIJ:  cpu time    0.1438: real time    0.2984
     EDDAV:  cpu time   59.6760: real time  119.7554
       DOS:  cpu time    0.0034: real time    0.0034
    CHARGE:  cpu time    2.4232: real time    4.8437
    MIXING:  cpu time    0.0311: real time    0.0702
    --------------------------------------------
      LOOP:  cpu time   63.7983: real time  128.0312

 eigenvalue-minimisations  :  3919
 total energy-change (2. order) : 0.2332850E+02  (-0.1239255E+02)
 number of electron     153.0000003 magnetization       4.3345544
 augmentation part        6.6536591 magnetization       3.7925408

 Broyden mixing:
  rms(total) = 0.68389E+01    rms(broyden)= 0.68388E+01
  rms(prec ) = 0.68655E+01
  weight for this iteration     100.00

 eigenvalues of (default mixing * dielectric matrix)
  average eigenvalue GAMMA=   1.1332
  1.1332

 Free energy of the ion-electron system (eV)
  ---------------------------------------------------
  alpha Z        PSCENC =       490.14769152
  Ewald energy   TEWEN  =     -5495.35240251
  -Hartree energ DENC   =     -5192.94606521
  -exchange      EXHF   =         0.00000000
  -V(xc)+E(xc)   XCENC  =       296.37857784
  PAW double counting   =     10934.99927576   -10661.20795507
  entropy T*S    EENTRO =        -0.05273487
  eigenvalues    EBANDS =     -1662.42595459
  atomic energy  EATOM  =     11174.96942390
  Solvation  Ediel_sol  =         0.00000000
  ---------------------------------------------------
  free energy    TOTEN  =      -115.49014322 eV

  energy without entropy =     -115.43740836  energy(sigma->0) =     -115.46377579


--------------------------------------------------------------------------------------------------------




--------------------------------------- Iteration      1(   7)  ---------------------------------------


    POTLOK:  cpu time    0.8323: real time    1.6771
    SETDIJ:  cpu time    0.0787: real time    0.1569
     EDDAV:  cpu time   53.2295: real time  106.7694
       DOS:  cpu time    0.0033: real time    0.0173
    CHARGE:  cpu time    3.8474: real time    7.7124
    MIXING:  cpu time    0.0230: real time    0.0491
    --------------------------------------------
      LOOP:  cpu time   58.0142: real time  116.3822

 eigenvalue-minimisations  :  4168
 total energy-change (2. order) :-0.1259538E+01  (-0.2013303E+01)
 number of electron     153.0000002 magnetization       1.0795351
 augmentation part        5.3804245 magnetization       0.6589458

 Broyden mixing:
  rms(total) = 0.38335E+01    rms(broyden)= 0.38335E+01
  rms(prec ) = 0.38505E+01
  weight for this iteration     100.00

 eigenvalues of (default mixing * dielectric matrix)
  average eigenvalue GAMMA=   1.5846
  0.7335  2.4357

 Free energy of the ion-electron system (eV)
  ---------------------------------------------------
  alpha Z        PSCENC =       490.14769152
  Ewald energy   TEWEN  =     -5495.35240251
  -Hartree energ DENC   =     -5179.50794592
  -exchange      EXHF   =         0.00000000
  -V(xc)+E(xc)   XCENC  =       294.46980356
  PAW double counting   =     12933.05539882   -12668.01480644
  entropy T*S    EENTRO =        -0.04754114
  eigenvalues    EBANDS =     -1666.46930333
  atomic energy  EATOM  =     11174.96942390
  Solvation  Ediel_sol  =         0.00000000
  ---------------------------------------------------
  free energy    TOTEN  =      -116.74968154 eV

  energy without entropy =     -116.70214039  energy(sigma->0) =     -116.72591096


--------------------------------------------------------------------------------------------------------




--------------------------------------- Iteration      1(   8)  ---------------------------------------


    POTLOK:  cpu time    0.8173: real time    1.6214
    SETDIJ:  cpu time    0.0793: real time    0.1575
     EDDAV:  cpu time   53.8348: real time  107.9735
       DOS:  cpu time    0.0032: real time    0.0032
    CHARGE:  cpu time    2.4272: real time    4.8846
    MIXING:  cpu time    0.0117: real time    0.0248
    --------------------------------------------
      LOOP:  cpu time   57.1736: real time  114.6650

 eigenvalue-minimisations  :  4032
 total energy-change (2. order) :-0.3524615E+00  (-0.6258852E+00)
 number of electron     153.0000003 magnetization       0.7436180
 augmentation part        5.1801144 magnetization       0.3808035

 Broyden mixing:
  rms(total) = 0.11130E+01    rms(broyden)= 0.11130E+01
  rms(prec ) = 0.11641E+01
  weight for this iteration     100.00

 eigenvalues of (default mixing * dielectric matrix)
  average eigenvalue GAMMA=   1.3129
  2.3715  0.9378  0.6295

 Free energy of the ion-electron system (eV)
  ---------------------------------------------------
  alpha Z        PSCENC =       490.14769152
  Ewald energy   TEWEN  =     -5495.35240251
  -Hartree energ DENC   =     -5194.16343624
  -exchange      EXHF   =         0.00000000
  -V(xc)+E(xc)   XCENC  =       294.15517442
  PAW double counting   =     14934.66975615   -14663.90805438
  entropy T*S    EENTRO =        -0.05947175
  eigenvalues    EBANDS =     -1657.56082413
  atomic energy  EATOM  =     11174.96942390
  Solvation  Ediel_sol  =         0.00000000
  ---------------------------------------------------
  free energy    TOTEN  =      -117.10214302 eV

  energy without entropy =     -117.04267128  energy(sigma->0) =     -117.07240715


--------------------------------------------------------------------------------------------------------




--------------------------------------- Iteration      1(   9)  ---------------------------------------


    POTLOK:  cpu time    0.8217: real time    1.6434
    SETDIJ:  cpu time    0.0798: real time    0.1580
     EDDAV:  cpu time   44.3444: real time   88.9463
       DOS:  cpu time    0.0035: real time    0.0035
    CHARGE:  cpu time    2.0053: real time    4.0300
    MIXING:  cpu time    0.0138: real time    0.0268
    --------------------------------------------
      LOOP:  cpu time   47.2684: real time   94.8080

 eigenvalue-minimisations  :  4248
 total energy-change (2. order) : 0.2503307E+00  (-0.1426787E+00)
 number of electron     153.0000002 magnetization       0.5691954
 augmentation part        5.0150870 magnetization       0.3271761

 Broyden mixing:
  rms(total) = 0.24213E+00    rms(broyden)= 0.24213E+00
  rms(prec ) = 0.26795E+00
  weight for this iteration     100.00

 eigenvalues of (default mixing * dielectric matrix)
  average eigenvalue GAMMA=   1.2281
  2.3638  0.9671  0.9671  0.6143

 Free energy of the ion-electron system (eV)
  ---------------------------------------------------
  alpha Z        PSCENC =       490.14769152
  Ewald energy   TEWEN  =     -5495.35240251
  -Hartree energ DENC   =     -5201.07295410
  -exchange      EXHF   =         0.00000000
  -V(xc)+E(xc)   XCENC  =       294.51557106
  PAW double counting   =     15038.65757598   -14766.07299987
  entropy T*S    EENTRO =        -0.06821656
  eigenvalues    EBANDS =     -1652.57550170
  atomic energy  EATOM  =     11174.96942390
  Solvation  Ediel_sol  =         0.00000000
  ---------------------------------------------------
  free energy    TOTEN  =      -116.85181227 eV

  energy without entropy =     -116.78359572  energy(sigma->0) =     -116.81770400


--------------------------------------------------------------------------------------------------------




--------------------------------------- Iteration      1(  10)  ---------------------------------------


    POTLOK:  cpu time    0.7935: real time    1.5891
    SETDIJ:  cpu time    0.0794: real time    0.1576
     EDDAV:  cpu time   67.4919: real time  135.3483
       DOS:  cpu time    0.0035: real time    0.0035
    CHARGE:  cpu time    1.3398: real time    2.6950
    MIXING:  cpu time    0.0120: real time    0.0251
    --------------------------------------------
      LOOP:  cpu time   69.7200: real time  139.8186

 eigenvalue-minimisations  :  4184
 total energy-change (2. order) :-0.1513805E-01  (-0.3292922E-01)
 number of electron     153.0000002 magnetization       0.3802198
 augmentation part        4.9382137 magnetization       0.2028646

 Broyden mixing:
  rms(total) = 0.13498E+00    rms(broyden)= 0.13497E+00
  rms(prec ) = 0.15744E+00
  weight for this iteration     100.00

 eigenvalues of (default mixing * dielectric matrix)
  average eigenvalue GAMMA=   1.2432
  2.2558  1.6279  0.8514  0.8514  0.6297

 Free energy of the ion-electron system (eV)
  ---------------------------------------------------
  alpha Z        PSCENC =       490.14769152
  Ewald energy   TEWEN  =     -5495.35240251
  -Hartree energ DENC   =     -5208.31092879
  -exchange      EXHF   =         0.00000000
  -V(xc)+E(xc)   XCENC  =       294.84592546
  PAW double counting   =     15058.85796486   -14783.11447347
  entropy T*S    EENTRO =        -0.07248716
  eigenvalues    EBANDS =     -1648.83766414
  atomic energy  EATOM  =     11174.96942390
  Solvation  Ediel_sol  =         0.00000000
  ---------------------------------------------------
  free energy    TOTEN  =      -116.86695032 eV

  energy without entropy =     -116.79446316  energy(sigma->0) =     -116.83070674


--------------------------------------------------------------------------------------------------------




--------------------------------------- Iteration      1(  11)  ---------------------------------------


    POTLOK:  cpu time    0.8068: real time    1.6084
    SETDIJ:  cpu time    0.0828: real time    0.1740
     EDDAV:  cpu time   57.0779: real time  114.4610
       DOS:  cpu time    0.0035: real time    0.0165
    CHARGE:  cpu time    2.7271: real time    5.4684
    MIXING:  cpu time    0.0539: real time    0.1191
    --------------------------------------------
      LOOP:  cpu time   60.7521: real time  121.8474

 eigenvalue-minimisations  :  3976
 total energy-change (2. order) :-0.4662208E-02  (-0.9117471E-02)
 number of electron     153.0000002 magnetization       0.2269917
 augmentation part        4.9427529 magnetization       0.1230957

 Broyden mixing:
  rms(total) = 0.52432E-01    rms(broyden)= 0.52432E-01
  rms(prec ) = 0.65585E-01
  weight for this iteration     100.00

 eigenvalues of (default mixing * dielectric matrix)
  average eigenvalue GAMMA=   1.2649
  2.2297  2.2297  0.8932  0.8932  0.6158  0.7275

 Free energy of the ion-electron system (eV)
  ---------------------------------------------------
  alpha Z        PSCENC =       490.14769152
  Ewald energy   TEWEN  =     -5495.35240251
  -Hartree energ DENC   =     -5217.06499797
  -exchange      EXHF   =         0.00000000
  -V(xc)+E(xc)   XCENC  =       295.17914647
  PAW double counting   =     15024.78309588   -14744.29668303
  entropy T*S    EENTRO =        -0.07571170
  eigenvalues    EBANDS =     -1645.16117510
  atomic energy  EATOM  =     11174.96942390
  Solvation  Ediel_sol  =         0.00000000
  ---------------------------------------------------
  free energy    TOTEN  =      -116.87161253 eV

  energy without entropy =     -116.79590083  energy(sigma->0) =     -116.83375668


--------------------------------------------------------------------------------------------------------




--------------------------------------- Iteration      1(  12)  ---------------------------------------


    POTLOK:  cpu time    0.8725: real time    1.7331
    SETDIJ:  cpu time    0.0790: real time    0.1683
     EDDAV:  cpu time   57.9833: real time  116.2878
       DOS:  cpu time    0.0035: real time    0.0195
    CHARGE:  cpu time    1.1645: real time    2.3303
    MIXING:  cpu time    0.0126: real time    0.0257
    --------------------------------------------
      LOOP:  cpu time   60.1154: real time  120.5646

 eigenvalue-minimisations  :  4176
 total energy-change (2. order) :-0.2625341E-02  (-0.1086287E-02)
 number of electron     153.0000002 magnetization       0.1516583
 augmentation part        4.9625968 magnetization       0.0921542

 Broyden mixing:
  rms(total) = 0.33125E-01    rms(broyden)= 0.33125E-01
  rms(prec ) = 0.39689E-01
  weight for this iteration     100.00

 eigenvalues of (default mixing * dielectric matrix)
  average eigenvalue GAMMA=   1.2450
  2.3050  2.3050  1.2039  0.8362  0.8362  0.6144  0.6144

 Free energy of the ion-electron system (eV)
  ---------------------------------------------------
  alpha Z        PSCENC =       490.14769152
  Ewald energy   TEWEN  =     -5495.35240251
  -Hartree energ DENC   =     -5220.56767455
  -exchange      EXHF   =         0.00000000
  -V(xc)+E(xc)   XCENC  =       295.30848839
  PAW double counting   =     15052.19736627   -14770.28270054
  entropy T*S    EENTRO =        -0.07656187
  eigenvalues    EBANDS =     -1643.21786848
  atomic energy  EATOM  =     11174.96942390
  Solvation  Ediel_sol  =         0.00000000
  ---------------------------------------------------
  free energy    TOTEN  =      -116.87423787 eV

  energy without entropy =     -116.79767600  energy(sigma->0) =     -116.83595694


--------------------------------------------------------------------------------------------------------




--------------------------------------- Iteration      1(  13)  ---------------------------------------


    POTLOK:  cpu time    0.8049: real time    1.6176
    SETDIJ:  cpu time    0.0816: real time    0.1598
     EDDAV:  cpu time   67.6680: real time  135.7182
       DOS:  cpu time    0.0034: real time    0.0034
    CHARGE:  cpu time    1.2577: real time    2.5183
    MIXING:  cpu time    0.0132: real time    0.0262
    --------------------------------------------
      LOOP:  cpu time   69.8288: real time  140.0436

 eigenvalue-minimisations  :  4248
 total energy-change (2. order) :-0.1478815E-02  (-0.4656679E-03)
 number of electron     153.0000002 magnetization       0.0869732
 augmentation part        4.9713380 magnetization       0.0411637

 Broyden mixing:
  rms(total) = 0.16664E-01    rms(broyden)= 0.16664E-01
  rms(prec ) = 0.21554E-01
  weight for this iteration     100.00

 eigenvalues of (default mixing * dielectric matrix)
  average eigenvalue GAMMA=   1.2672
  2.3793  2.3793  1.3267  1.1411  0.8380  0.8380  0.6256  0.6097

 Free energy of the ion-electron system (eV)
  ---------------------------------------------------
  alpha Z        PSCENC =       490.14769152
  Ewald energy   TEWEN  =     -5495.35240251
  -Hartree energ DENC   =     -5221.58249917
  -exchange      EXHF   =         0.00000000
  -V(xc)+E(xc)   XCENC  =       295.34179046
  PAW double counting   =     15065.60686691   -14783.56004997
  entropy T*S    EENTRO =        -0.07676953
  eigenvalues    EBANDS =     -1642.36976830
  atomic energy  EATOM  =     11174.96942390
  Solvation  Ediel_sol  =         0.00000000
  ---------------------------------------------------
  free energy    TOTEN  =      -116.87571669 eV

  energy without entropy =     -116.79894715  energy(sigma->0) =     -116.83733192


--------------------------------------------------------------------------------------------------------




--------------------------------------- Iteration      1(  14)  ---------------------------------------


    POTLOK:  cpu time    0.7883: real time    1.5830
    SETDIJ:  cpu time    0.0782: real time    0.1564
     EDDAV:  cpu time   51.8082: real time  103.9163
       DOS:  cpu time    0.0035: real time    0.0164
    CHARGE:  cpu time    2.0289: real time    4.0627
    MIXING:  cpu time    0.0135: real time    0.0265
    --------------------------------------------
      LOOP:  cpu time   54.7206: real time  109.7614

 eigenvalue-minimisations  :  3712
 total energy-change (2. order) :-0.1507497E-02  (-0.1794824E-03)
 number of electron     153.0000002 magnetization       0.0257870
 augmentation part        4.9750567 magnetization      -0.0020073

 Broyden mixing:
  rms(total) = 0.78623E-02    rms(broyden)= 0.78622E-02
  rms(prec ) = 0.11962E-01
  weight for this iteration     100.00

 eigenvalues of (default mixing * dielectric matrix)
  average eigenvalue GAMMA=   1.3383
  2.5649  2.5649  1.8935  1.3023  0.8472  0.8472  0.7941  0.6154  0.6154

 Free energy of the ion-electron system (eV)
  ---------------------------------------------------
  alpha Z        PSCENC =       490.14769152
  Ewald energy   TEWEN  =     -5495.35240251
  -Hartree energ DENC   =     -5222.44738890
  -exchange      EXHF   =         0.00000000
  -V(xc)+E(xc)   XCENC  =       295.36718053
  PAW double counting   =     15065.61585808   -14783.52894303
  entropy T*S    EENTRO =        -0.07695515
  eigenvalues    EBANDS =     -1641.57168862
  atomic energy  EATOM  =     11174.96942390
  Solvation  Ediel_sol  =         0.00000000
  ---------------------------------------------------
  free energy    TOTEN  =      -116.87722418 eV

  energy without entropy =     -116.80026903  energy(sigma->0) =     -116.83874661


--------------------------------------------------------------------------------------------------------




--------------------------------------- Iteration      1(  15)  ---------------------------------------


    POTLOK:  cpu time    0.7914: real time    1.5801
    SETDIJ:  cpu time    0.0821: real time    0.1734
     EDDAV:  cpu time   73.3946: real time  147.1805
       DOS:  cpu time    0.0034: real time    0.0164
    CHARGE:  cpu time    2.7444: real time    5.4980
    MIXING:  cpu time    0.0161: real time    0.0291
    --------------------------------------------
      LOOP:  cpu time   77.0319: real time  154.4774

 eigenvalue-minimisations  :  3592
 total energy-change (2. order) :-0.7046499E-03  (-0.9597096E-04)
 number of electron     153.0000002 magnetization       0.0052934
 augmentation part        4.9783416 magnetization      -0.0038870

 Broyden mixing:
  rms(total) = 0.43044E-02    rms(broyden)= 0.43043E-02
  rms(prec ) = 0.59594E-02
  weight for this iteration     100.00

 eigenvalues of (default mixing * dielectric matrix)
  average eigenvalue GAMMA=   1.3458
  2.8902  2.2825  2.2825  1.4822  0.9406  0.8171  0.8171  0.6113  0.6674  0.6674

 Free energy of the ion-electron system (eV)
  ---------------------------------------------------
  alpha Z        PSCENC =       490.14769152
  Ewald energy   TEWEN  =     -5495.35240251
  -Hartree energ DENC   =     -5223.17505154
  -exchange      EXHF   =         0.00000000
  -V(xc)+E(xc)   XCENC  =       295.38927045
  PAW double counting   =     15070.86943175   -14788.82730250
  entropy T*S    EENTRO =        -0.07704473
  eigenvalues    EBANDS =     -1640.82194518
  atomic energy  EATOM  =     11174.96942390
  Solvation  Ediel_sol  =         0.00000000
  ---------------------------------------------------
  free energy    TOTEN  =      -116.87792883 eV

  energy without entropy =     -116.80088411  energy(sigma->0) =     -116.83940647


--------------------------------------------------------------------------------------------------------




--------------------------------------- Iteration      1(  16)  ---------------------------------------


    POTLOK:  cpu time    0.7839: real time    1.5792
    SETDIJ:  cpu time    0.0846: real time    0.1628
     EDDAV:  cpu time   45.5405: real time   91.3508
       DOS:  cpu time    0.0034: real time    0.0194
    CHARGE:  cpu time    2.6426: real time    5.2919
    MIXING:  cpu time    0.0182: real time    0.0313
    --------------------------------------------
      LOOP:  cpu time   49.0732: real time   98.4355

 eigenvalue-minimisations  :  3792
 total energy-change (2. order) :-0.1195435E-03  (-0.3411079E-04)
 number of electron     153.0000002 magnetization      -0.0002328
 augmentation part        4.9806346 magnetization      -0.0026831

 Broyden mixing:
  rms(total) = 0.31598E-02    rms(broyden)= 0.31597E-02
  rms(prec ) = 0.36448E-02
  weight for this iteration     100.00

 eigenvalues of (default mixing * dielectric matrix)
  average eigenvalue GAMMA=   1.3141
  3.1971  2.2806  2.2806  1.6159  0.9957  0.8127  0.8127  0.6737  0.6737  0.6029
  0.5093

 Free energy of the ion-electron system (eV)
  ---------------------------------------------------
  alpha Z        PSCENC =       490.14769152
  Ewald energy   TEWEN  =     -5495.35240251
  -Hartree energ DENC   =     -5223.41881327
  -exchange      EXHF   =         0.00000000
  -V(xc)+E(xc)   XCENC  =       295.39713704
  PAW double counting   =     15071.38942047   -14789.40198228
  entropy T*S    EENTRO =        -0.07705395
  eigenvalues    EBANDS =     -1640.53146929
  atomic energy  EATOM  =     11174.96942390
  Solvation  Ediel_sol  =         0.00000000
  ---------------------------------------------------
  free energy    TOTEN  =      -116.87804838 eV

  energy without entropy =     -116.80099443  energy(sigma->0) =     -116.83952140


--------------------------------------------------------------------------------------------------------




--------------------------------------- Iteration      1(  17)  ---------------------------------------


    POTLOK:  cpu time    0.7632: real time    1.5328
    SETDIJ:  cpu time    0.0788: real time    0.1570
     EDDAV:  cpu time   44.9831: real time   90.2258
       DOS:  cpu time    0.0035: real time    0.0045
    CHARGE:  cpu time    1.8120: real time    3.6430
    MIXING:  cpu time    0.0166: real time    0.0297
    --------------------------------------------
      LOOP:  cpu time   47.6572: real time   95.5927

 eigenvalue-minimisations  :  3040
 total energy-change (2. order) :-0.2048163E-04  (-0.3523962E-05)
 number of electron     153.0000002 magnetization      -0.0014593
 augmentation part        4.9806517 magnetization      -0.0015735

 Broyden mixing:
  rms(total) = 0.16173E-02    rms(broyden)= 0.16173E-02
  rms(prec ) = 0.19089E-02
  weight for this iteration     100.00

 eigenvalues of (default mixing * dielectric matrix)
  average eigenvalue GAMMA=   1.3463
  3.4774  2.4141  2.4141  1.7255  1.1309  0.8221  0.8221  0.7545  0.7545  0.6631
  0.5910  0.5866

 Free energy of the ion-electron system (eV)
  ---------------------------------------------------
  alpha Z        PSCENC =       490.14769152
  Ewald energy   TEWEN  =     -5495.35240251
  -Hartree energ DENC   =     -5223.42414332
  -exchange      EXHF   =         0.00000000
  -V(xc)+E(xc)   XCENC  =       295.39674149
  PAW double counting   =     15069.88378464   -14787.97675150
  entropy T*S    EENTRO =        -0.07705494
  eigenvalues    EBANDS =     -1640.44535814
  atomic energy  EATOM  =     11174.96942390
  Solvation  Ediel_sol  =         0.00000000
  ---------------------------------------------------
  free energy    TOTEN  =      -116.87806886 eV

  energy without entropy =     -116.80101392  energy(sigma->0) =     -116.83954139


--------------------------------------------------------------------------------------------------------




--------------------------------------- Iteration      1(  18)  ---------------------------------------


    POTLOK:  cpu time    0.7539: real time    1.5083
    SETDIJ:  cpu time    0.0783: real time    0.1565
     EDDAV:  cpu time   35.4229: real time   71.0610
       DOS:  cpu time    0.0032: real time    0.0032
    --------------------------------------------
      LOOP:  cpu time   36.2582: real time   72.7290

 eigenvalue-minimisations  :  2504
 total energy-change (2. order) :-0.2575562E-05  (-0.5410084E-06)
 number of electron     153.0000002 magnetization      -0.0014593
 augmentation part        4.9806517 magnetization      -0.0015735

 Free energy of the ion-electron system (eV)
  ---------------------------------------------------
  alpha Z        PSCENC =       490.14769152
  Ewald energy   TEWEN  =     -5495.35240251
  -Hartree energ DENC   =     -5223.40324659
  -exchange      EXHF   =         0.00000000
  -V(xc)+E(xc)   XCENC  =       295.39533629
  PAW double counting   =     15068.56856157   -14786.70919176
  entropy T*S    EENTRO =        -0.07705512
  eigenvalues    EBANDS =     -1640.41718873
  atomic energy  EATOM  =     11174.96942390
  Solvation  Ediel_sol  =         0.00000000
  ---------------------------------------------------
  free energy    TOTEN  =      -116.87807143 eV

  energy without entropy =     -116.80101631  energy(sigma->0) =     -116.83954387


--------------------------------------------------------------------------------------------------------




 average (electrostatic) potential at core
  the test charge radii are     1.2780  0.6991  1.1875
  (the norm of the test charge is              1.0000)
       1 -36.9025       2 -36.8523       3 -36.9845       4 -36.9516       5 -36.8619
       6 -37.1713       7 -36.9283       8 -36.9181       9 -49.9761      10 -49.9952
      11 -49.9489      12 -49.9916      13 -92.7006      14 -92.7044      15 -92.7525
      16 -92.7584      17 -92.8453      18 -92.8114      19 -92.9723



 E-fermi :   3.5304     XC(G=0):  -8.6096     alpha+bet : -9.1734


 spin component 1

 k-point     1 :       0.0000    0.0000    0.0000
  band No.  band energies     occupation 
      1     -39.0601      1.00000
      2     -38.8828      1.00000
      3     -38.8470      1.00000
      4     -38.8206      1.00000
      5     -38.8091      1.00000
      6     -38.7921      1.00000
      7     -38.7649      1.00000
      8     -38.7384      1.00000
      9     -19.2341      1.00000
     10     -19.1499      1.00000
     11     -19.1234      1.00000
     12     -19.1088      1.00000
     13     -19.0777      1.00000
     14     -19.0623      1.00000
     15     -19.0170      1.00000
     16     -18.9828      1.00000
     17     -18.9141      1.00000
     18     -18.8775      1.00000
     19     -18.8614      1.00000
     20     -18.8228      1.00000
     21     -18.8152      1.00000
     22     -18.7944      1.00000
     23     -18.7797      1.00000
     24     -18.7634      1.00000
     25     -18.7497      1.00000
     26     -18.7407      1.00000
     27     -18.7118      1.00000
     28     -18.7054      1.00000
     29     -18.6995      1.00000
     30     -18.6866      1.00000
     31     -18.6637      1.00000
     32     -18.6500      1.00000
     33      -9.9614      1.00000
     34      -9.8582      1.00000
     35      -9.4871      1.00000
     36      -9.3002      1.00000
     37      -9.2688      1.00000
     38      -9.2426      1.00000
     39      -9.2319      1.00000
     40      -5.3850      1.00000
     41      -4.9310      1.00000
     42      -4.8879      1.00000
     43      -4.8261      1.00000
     44      -1.2910      1.00000
     45      -0.9806      1.00000
     46      -0.8950      1.00000
     47      -0.7957      1.00000
     48      -0.7325      1.00000
     49      -0.6851      1.00000
     50      -0.4727      1.00000
     51      -0.0976      1.00000
     52       0.0317      1.00000
     53       0.1114      1.00000
     54       0.1467      1.00000
     55       0.2254      1.00000
     56       0.2892      1.00000
     57       0.3268      1.00000
     58       0.3522      1.00000
     59       0.3948      1.00000
     60       1.1962      1.00000
     61       1.2789      1.00000
     62       1.3680      1.00000
     63       1.4776      1.00000
     64       1.5742      1.00000
     65       1.6082      1.00000
     66       1.7734      1.00000
     67       1.8205      1.00000
     68       1.8445      1.00000
     69       1.9474      1.00000
     70       2.0367      1.00000
     71       2.3317      1.00000
     72       2.3817      1.00000
     73       2.4476      1.00000
     74       2.4839      1.00000
     75       2.6270      1.00000
     76       2.7067      1.00000
     77       3.4634      0.68204
     78       4.1951      0.00000
     79       4.7224      0.00000
     80       4.9579      0.00000
     81       5.0344      0.00000
     82       5.2200      0.00000
     83       5.2344      0.00000
     84       5.2460      0.00000
     85       5.6687      0.00000
     86       6.4095      0.00000
     87       6.6000      0.00000
     88       6.6629      0.00000
     89       6.6851      0.00000
     90       6.8548      0.00000
     91       6.8917      0.00000
     92       6.9261      0.00000
     93       7.0922      0.00000
     94       7.1413      0.00000
     95       7.2448      0.00000
     96       7.2565      0.00000
     97       7.2981      0.00000

 k-point     2 :       0.5000    0.0000    0.0000
  band No.  band energies     occupation 
      1     -39.0600      1.00000
      2     -38.8809      1.00000
      3     -38.8499      1.00000
      4     -38.8204      1.00000
      5     -38.8084      1.00000
      6     -38.7915      1.00000
      7     -38.7659      1.00000
      8     -38.7381      1.00000
      9     -19.2268      1.00000
     10     -19.1333      1.00000
     11     -19.1186      1.00000
     12     -19.0791      1.00000
     13     -19.0680      1.00000
     14     -19.0466      1.00000
     15     -18.9962      1.00000
     16     -18.9731      1.00000
     17     -18.9411      1.00000
     18     -18.9009      1.00000
     19     -18.8822      1.00000
     20     -18.8323      1.00000
     21     -18.8207      1.00000
     22     -18.7878      1.00000
     23     -18.7822      1.00000
     24     -18.7697      1.00000
     25     -18.7529      1.00000
     26     -18.7393      1.00000
     27     -18.7294      1.00000
     28     -18.7180      1.00000
     29     -18.6974      1.00000
     30     -18.6858      1.00000
     31     -18.6679      1.00000
     32     -18.6507      1.00000
     33      -9.7772      1.00000
     34      -9.7068      1.00000
     35      -9.6701      1.00000
     36      -9.6297      1.00000
     37      -9.2163      1.00000
     38      -9.1914      1.00000
     39      -9.1879      1.00000
     40      -5.2001      1.00000
     41      -5.1575      1.00000
     42      -4.8543      1.00000
     43      -4.8038      1.00000
     44      -0.8860      1.00000
     45      -0.8430      1.00000
     46      -0.8197      1.00000
     47      -0.5634      1.00000
     48      -0.4565      1.00000
     49      -0.2776      1.00000
     50      -0.1788      1.00000
     51      -0.1259      1.00000
     52      -0.0835      1.00000
     53      -0.0275      1.00000
     54       0.0054      1.00000
     55       0.1941      1.00000
     56       0.2642      1.00000
     57       0.3022      1.00000
     58       0.3696      1.00000
     59       0.4171      1.00000
     60       0.5630      1.00000
     61       0.6069      1.00000
     62       1.4820      1.00000
     63       1.5101      1.00000
     64       1.5384      1.00000
     65       1.5702      1.00000
     66       1.6977      1.00000
     67       1.7391      1.00000
     68       1.8242      1.00000
     69       1.8860      1.00000
     70       1.9150      1.00000
     71       1.9800      1.00000
     72       2.0470      1.00000
     73       2.2850      1.00000
     74       2.3349      1.00000
     75       2.4398      1.00000
     76       2.5537      1.00000
     77       4.4432      0.00000
     78       4.4761      0.00000
     79       4.5779      0.00000
     80       4.7224      0.00000
     81       5.1098      0.00000
     82       5.2566      0.00000
     83       5.3122      0.00000
     84       5.7132      0.00000
     85       5.7652      0.00000
     86       6.0030      0.00000
     87       6.0663      0.00000
     88       6.1661      0.00000
     89       6.4514      0.00000
     90       6.5059      0.00000
     91       6.6212      0.00000
     92       6.7472      0.00000
     93       6.8483      0.00000
     94       7.0851      0.00000
     95       7.1838      0.00000
     96       7.3401      0.00000
     97       7.4251      0.00000

 k-point     3 :       0.0000    0.5000    0.0000
  band No.  band energies     occupation 
      1     -39.0599      1.00000
      2     -38.8815      1.00000
      3     -38.8471      1.00000
      4     -38.8207      1.00000
      5     -38.8101      1.00000
      6     -38.7927      1.00000
      7     -38.7650      1.00000
      8     -38.7381      1.00000
      9     -19.2284      1.00000
     10     -19.1604      1.00000
     11     -19.1294      1.00000
     12     -19.1134      1.00000
     13     -19.0791      1.00000
     14     -19.0658      1.00000
     15     -19.0074      1.00000
     16     -18.9298      1.00000
     17     -18.8983      1.00000
     18     -18.8950      1.00000
     19     -18.8434      1.00000
     20     -18.8344      1.00000
     21     -18.8246      1.00000
     22     -18.8070      1.00000
     23     -18.8000      1.00000
     24     -18.7718      1.00000
     25     -18.7573      1.00000
     26     -18.7292      1.00000
     27     -18.7203      1.00000
     28     -18.7093      1.00000
     29     -18.6970      1.00000
     30     -18.6842      1.00000
     31     -18.6606      1.00000
     32     -18.6478      1.00000
     33      -9.7647      1.00000
     34      -9.6433      1.00000
     35      -9.5985      1.00000
     36      -9.4865      1.00000
     37      -9.3824      1.00000
     38      -9.2961      1.00000
     39      -9.2404      1.00000
     40      -5.1664      1.00000
     41      -5.0878      1.00000
     42      -4.9228      1.00000
     43      -4.8358      1.00000
     44      -1.3061      1.00000
     45      -1.2903      1.00000
     46      -1.1381      1.00000
     47      -0.5709      1.00000
     48      -0.5274      1.00000
     49      -0.4142      1.00000
     50      -0.2341      1.00000
     51      -0.1612      1.00000
     52      -0.0260      1.00000
     53       0.0550      1.00000
     54       0.1314      1.00000
     55       0.2158      1.00000
     56       0.2354      1.00000
     57       0.3472      1.00000
     58       0.7091      1.00000
     59       1.1444      1.00000
     60       1.2116      1.00000
     61       1.2692      1.00000
     62       1.3178      1.00000
     63       1.3824      1.00000
     64       1.5041      1.00000
     65       1.5145      1.00000
     66       1.6176      1.00000
     67       1.6393      1.00000
     68       1.8438      1.00000
     69       2.0101      1.00000
     70       2.0710      1.00000
     71       2.2815      1.00000
     72       2.3907      1.00000
     73       2.4315      1.00000
     74       2.4639      1.00000
     75       2.5092      1.00000
     76       2.5235      1.00000
     77       3.4509      0.71301
     78       3.4721      0.65973
     79       4.0462      0.00013
     80       4.2471      0.00000
     81       4.6410      0.00000
     82       5.7991      0.00000
     83       5.9452      0.00000
     84       5.9703      0.00000
     85       6.0982      0.00000
     86       6.3758      0.00000
     87       6.4605      0.00000
     88       6.7346      0.00000
     89       6.7780      0.00000
     90       6.8766      0.00000
     91       6.9156      0.00000
     92       7.0666      0.00000
     93       7.1372      0.00000
     94       7.1788      0.00000
     95       7.2220      0.00000
     96       7.3067      0.00000
     97       7.3431      0.00000

 k-point     4 :       0.5000    0.5000    0.0000
  band No.  band energies     occupation 
      1     -39.0598      1.00000
      2     -38.8798      1.00000
      3     -38.8494      1.00000
      4     -38.8205      1.00000
      5     -38.8097      1.00000
      6     -38.7921      1.00000
      7     -38.7662      1.00000
      8     -38.7377      1.00000
      9     -19.2240      1.00000
     10     -19.1362      1.00000
     11     -19.1116      1.00000
     12     -19.0889      1.00000
     13     -19.0567      1.00000
     14     -19.0413      1.00000
     15     -18.9876      1.00000
     16     -18.9612      1.00000
     17     -18.9487      1.00000
     18     -18.8894      1.00000
     19     -18.8847      1.00000
     20     -18.8742      1.00000
     21     -18.8149      1.00000
     22     -18.8067      1.00000
     23     -18.7872      1.00000
     24     -18.7637      1.00000
     25     -18.7415      1.00000
     26     -18.7334      1.00000
     27     -18.7237      1.00000
     28     -18.7128      1.00000
     29     -18.7067      1.00000
     30     -18.6912      1.00000
     31     -18.6710      1.00000
     32     -18.6439      1.00000
     33      -9.6491      1.00000
     34      -9.5198      1.00000
     35      -9.5009      1.00000
     36      -9.4785      1.00000
     37      -9.4638      1.00000
     38      -9.4302      1.00000
     39      -9.4086      1.00000
     40      -5.0690      1.00000
     41      -5.0126      1.00000
     42      -5.0009      1.00000
     43      -4.9234      1.00000
     44      -0.6675      1.00000
     45      -0.4759      1.00000
     46      -0.4607      1.00000
     47      -0.4374      1.00000
     48      -0.4341      1.00000
     49      -0.4130      1.00000
     50      -0.3658      1.00000
     51      -0.3157      1.00000
     52      -0.2988      1.00000
     53      -0.0967      1.00000
     54      -0.0115      1.00000
     55       0.0745      1.00000
     56       0.0912      1.00000
     57       0.1615      1.00000
     58       0.2629      1.00000
     59       1.0320      1.00000
     60       1.0913      1.00000
     61       1.1154      1.00000
     62       1.1261      1.00000
     63       1.1505      1.00000
     64       1.2439      1.00000
     65       1.4286      1.00000
     66       1.6517      1.00000
     67       1.6973      1.00000
     68       1.7269      1.00000
     69       2.0717      1.00000
     70       2.0935      1.00000
     71       2.1381      1.00000
     72       2.2141      1.00000
     73       2.2284      1.00000
     74       2.2670      1.00000
     75       2.3091      1.00000
     76       2.3283      1.00000
     77       4.0670      0.00007
     78       4.1415      0.00001
     79       4.1638      0.00000
     80       4.2826      0.00000
     81       4.9024      0.00000
     82       5.1781      0.00000
     83       5.4883      0.00000
     84       5.5338      0.00000
     85       5.6923      0.00000
     86       6.3213      0.00000
     87       6.3754      0.00000
     88       6.4549      0.00000
     89       6.6566      0.00000
     90       6.6999      0.00000
     91       6.9885      0.00000
     92       6.9992      0.00000
     93       7.0349      0.00000
     94       7.1373      0.00000
     95       7.2014      0.00000
     96       7.2542      0.00000
     97       7.3548      0.00000

 k-point     5 :       0.0000    0.0000    0.5000
  band No.  band energies     occupation 
      1     -39.0601      1.00000
[...]
 -0.000   0.001  -0.004   0.010   0.266   0.004  -0.010  -0.264  -0.042  -0.002   0.001   0.005   0.000   0.022   0.001  -0.001
 -0.000  -0.001  -0.130  -0.007   0.006   0.131   0.008  -0.006  -0.002   0.029  -0.002   0.002  -0.024   0.001  -0.017   0.001
 -0.004   0.026   0.006   0.183   0.004  -0.006  -0.183  -0.003   0.000   0.006  -0.033   0.000  -0.001  -0.000  -0.003   0.017
  0.000  -0.001   0.006  -0.012  -0.125  -0.006   0.011   0.127  -0.023   0.002  -0.001   0.028  -0.001   0.012  -0.001   0.001
  0.000  -0.001   0.268   0.004  -0.008  -0.268  -0.004   0.008  -0.000   0.009   0.001  -0.003  -0.048   0.000  -0.005  -0.001
  0.000  -0.000  -0.001  -0.002   0.002   0.000   0.002  -0.003   0.003   0.000   0.000  -0.001  -0.001  -0.002  -0.000  -0.000
 total augmentation occupancy for first ion, spin component:           2
 -0.000  -0.000  -0.000  -0.000  -0.000   0.000   0.000   0.000   0.000  -0.000  -0.000  -0.000   0.000  -0.000  -0.000   0.000
 -0.000   0.000  -0.000   0.000  -0.000   0.000  -0.000   0.000   0.000  -0.000   0.000  -0.000   0.000  -0.000   0.000  -0.000
 -0.000  -0.000   0.000   0.000   0.000  -0.000  -0.000  -0.000  -0.000   0.000  -0.000   0.000   0.000   0.000  -0.000   0.000
 -0.000   0.000   0.000   0.000   0.000  -0.000  -0.000  -0.000   0.000   0.000  -0.000  -0.000   0.000  -0.000  -0.000   0.000
 -0.000  -0.000   0.000   0.000   0.000  -0.000  -0.000  -0.000   0.000   0.000   0.000   0.000  -0.000  -0.000  -0.000  -0.000
  0.000   0.000  -0.000  -0.000  -0.000   0.000   0.000   0.000   0.000   0.000   0.000  -0.000  -0.000  -0.000   0.000  -0.000
  0.000  -0.000  -0.000  -0.000  -0.000   0.000   0.000   0.000  -0.000  -0.000   0.000   0.000  -0.000   0.000   0.000  -0.000
  0.000   0.000  -0.000  -0.000  -0.000   0.000   0.000   0.000  -0.000  -0.000  -0.000  -0.000   0.000   0.000   0.000   0.000
  0.000   0.000  -0.000   0.000   0.000   0.000  -0.000  -0.000   0.000  -0.000  -0.000  -0.000  -0.000  -0.000   0.000   0.000
 -0.000  -0.000   0.000   0.000   0.000   0.000  -0.000  -0.000  -0.000  -0.000   0.000   0.000  -0.000   0.000   0.000  -0.000
 -0.000   0.000  -0.000  -0.000   0.000   0.000   0.000  -0.000  -0.000   0.000   0.000   0.000   0.000   0.000  -0.000  -0.000
 -0.000  -0.000   0.000  -0.000   0.000  -0.000   0.000  -0.000  -0.000   0.000   0.000   0.000  -0.000   0.000  -0.000  -0.000
  0.000   0.000   0.000   0.000  -0.000  -0.000  -0.000   0.000  -0.000  -0.000   0.000  -0.000   0.000   0.000   0.000  -0.000
 -0.000  -0.000   0.000  -0.000  -0.000  -0.000   0.000   0.000  -0.000   0.000   0.000   0.000   0.000   0.000  -0.000  -0.000
 -0.000   0.000  -0.000  -0.000  -0.000   0.000   0.000   0.000   0.000   0.000  -0.000  -0.000   0.000  -0.000  -0.000   0.000
  0.000  -0.000   0.000   0.000  -0.000  -0.000  -0.000   0.000   0.000  -0.000  -0.000  -0.000  -0.000  -0.000   0.000   0.000
  0.000   0.000  -0.000   0.000  -0.000   0.000  -0.000   0.000   0.000  -0.000  -0.000  -0.000   0.000  -0.000   0.000   0.000
 -0.000  -0.000  -0.000  -0.000   0.000   0.000   0.000  -0.000  -0.000   0.000  -0.000   0.000  -0.000  -0.000  -0.000   0.000
  0.000  -0.000  -0.000   0.000   0.000   0.000  -0.000  -0.000  -0.000  -0.000  -0.000   0.000   0.000   0.000   0.000   0.000
 -0.000  -0.000  -0.000  -0.000   0.000   0.000   0.000  -0.000  -0.000  -0.000   0.000   0.000   0.000   0.000   0.000  -0.000
 -0.000   0.000  -0.000   0.000   0.000   0.000  -0.000  -0.000  -0.000  -0.000  -0.000  -0.000   0.000   0.000   0.000  -0.000
  0.000   0.000  -0.000   0.000   0.000   0.000  -0.000  -0.000  -0.000   0.000  -0.000   0.000   0.000   0.000   0.000   0.000
 -0.000   0.000  -0.000  -0.000   0.000   0.000   0.000  -0.000   0.000  -0.000   0.000  -0.000   0.000   0.000   0.000  -0.000
 -0.000  -0.000  -0.000   0.000  -0.000   0.000  -0.000   0.000   0.000   0.000   0.000   0.000   0.000  -0.000  -0.000  -0.000
  0.000  -0.000   0.000  -0.000   0.000  -0.000   0.000   0.000  -0.000   0.000   0.000   0.000  -0.000   0.000  -0.000  -0.000


------------------------ aborting loop because EDIFF is reached ----------------------------------------





 total charge     

# of ion       s       p       d       f       tot
--------------------------------------------------
    1        2.183   6.374   0.942   0.044   9.542
    2        2.183   6.369   0.943   0.043   9.538
    3        2.183   6.369   0.934   0.043   9.529
    4        2.183   6.370   0.936   0.043   9.531
    5        2.198   6.367   0.989   0.042   9.597
    6        2.195   6.327   0.974   0.038   9.534
    7        2.197   6.350   0.986   0.042   9.575
    8        2.183   6.358   0.943   0.042   9.526
    9        0.865   1.386   0.000   0.000   2.250
   10        0.864   1.377   0.000   0.000   2.241
   11        0.864   1.371   0.000   0.000   2.235
   12        0.864   1.368   0.000   0.000   2.232
   13        1.507   2.833   0.019   0.000   4.359
   14        1.507   2.833   0.019   0.000   4.359
   15        1.507   2.833   0.019   0.000   4.359
   16        1.508   2.833   0.019   0.000   4.359
   17        1.507   2.818   0.015   0.000   4.340
   18        1.508   2.829   0.017   0.000   4.354
   19        1.506   2.826   0.015   0.000   4.346
--------------------------------------------------
tot         31.513  76.190   7.768   0.336 115.807




 magnetization (x)

# of ion       s       p       d       f       tot
--------------------------------------------------
    1        0.000  -0.000  -0.000  -0.000   0.000
    2        0.000   0.000  -0.000  -0.000  -0.000
    3        0.000  -0.000  -0.000   0.000  -0.000
    4       -0.000  -0.000  -0.000  -0.000  -0.000
    5       -0.000   0.000   0.000   0.000   0.000
    6        0.000   0.000  -0.000  -0.000   0.000
    7        0.000   0.000  -0.000  -0.000  -0.000
    8       -0.000   0.000  -0.000  -0.000  -0.000
    9       -0.000  -0.000   0.000   0.000  -0.000
   10        0.000   0.000   0.000   0.000   0.000
   11       -0.000  -0.000   0.000   0.000  -0.000
   12        0.000  -0.000   0.000   0.000  -0.000
   13        0.000  -0.000  -0.000   0.000  -0.000
   14       -0.000  -0.000  -0.000   0.000  -0.000
   15       -0.000  -0.000  -0.000   0.000  -0.000
   16        0.000  -0.000   0.000   0.000   0.000
   17       -0.000  -0.000   0.000   0.000  -0.000
   18       -0.000  -0.000  -0.000   0.000  -0.000
   19       -0.000  -0.000   0.000   0.000  -0.000
--------------------------------------------------
tot          0.000  -0.000  -0.000  -0.000  -0.000


    CHARGE:  cpu time    4.9908: real time   10.0047
    FORLOC:  cpu time    0.0575: real time    0.1097
    FORNL :  cpu time   13.2092: real time   26.4914
    STRESS:  cpu time   33.1049: real time   66.4017
    FORCOR:  cpu time    0.8485: real time    1.7090
    FORHAR:  cpu time    0.1296: real time    0.2580
    MIXING:  cpu time    0.0389: real time    0.0780
    OFIELD:  cpu time    0.0000: real time    0.0000

  FORCE on cell =-STRESS in cart. coord.  units (eV):
  Direction    XX          YY          ZZ          XY          YZ          ZX
  --------------------------------------------------------------------------------------
  Alpha Z   490.14769   490.14769   490.14769
  Ewald     570.86763   599.23296 -6674.56456   -31.26034    11.30930    22.07756
  Hartree  3969.72915  3986.58012 -2741.46582   -14.24767     5.70207     8.24865
  E(xc)    -597.53234  -597.44335  -598.00488    -0.07198     0.02529     0.03202
  Local   -6679.35686 -6723.35790  7298.33095    46.11684   -17.62512   -30.86887
  n-local   537.51414   537.06364   540.95348     0.01387    -0.38521    -0.45061
  augment  -143.46669  -143.07250  -142.13540    -0.08057     0.03374    -0.05210
  Kinetic  1847.14752  1844.66478  1826.88320    -1.00859     1.66365     3.00482
  Fock        0.00000     0.00000     0.00000     0.00000     0.00000     0.00000
  -------------------------------------------------------------------------------------
  Total      -4.94975    -6.18456     0.14466    -0.53844     0.72373     1.99148
  in kB     -13.66289   -17.07136     0.39930    -1.48628     1.99773     5.49713
  external pressure =      -10.11 kB  Pullay stress =        0.00 kB


 VOLUME and BASIS-vectors are now :
 -----------------------------------------------------------------------------
  energy-cutoff  :      520.00
  volume of cell :      580.43
      direct lattice vectors                 reciprocal lattice vectors
     7.770644000  0.000004000  0.000000000     0.128689463 -0.000000038  0.000000012
     0.000002000  6.729576000  0.000000000    -0.000000076  0.148597772  0.000000013
    -0.000001000 -0.000001000 11.099577000     0.000000000  0.000000000  0.090093523

  length of vectors
     7.770644000  6.729576000 11.099577000     0.128689463  0.148597772  0.090093523


 FORCES acting on ions
    electron-ion (+dipol)            ewald-force                    non-local-force                 convergence-correction
 -----------------------------------------------------------------------------------------------
   0.188E+01 -.464E+01 -.368E+03   -.189E+01 0.463E+01 0.364E+03   0.468E-01 0.167E-01 0.453E+01   0.651E-04 -.446E-03 0.749E-05
   -.294E+01 0.799E+00 -.337E+03   0.292E+01 -.752E+00 0.332E+03   0.364E-01 -.419E-01 0.467E+01   0.149E-02 -.244E-03 -.362E-03
   -.417E+01 -.253E+01 -.367E+03   0.424E+01 0.211E+01 0.363E+03   -.431E-01 0.430E+00 0.425E+01   0.186E-02 0.130E-02 -.606E-03
   0.253E+01 0.523E+01 -.362E+03   -.270E+01 -.491E+01 0.358E+03   0.194E+00 -.303E+00 0.447E+01   0.358E-03 -.513E-03 0.644E-04
   -.688E+02 -.356E+02 0.447E+03   0.672E+02 0.349E+02 -.441E+03   0.161E+01 0.656E+00 -.602E+01   0.119E-02 0.682E-03 0.116E-02
   0.677E+02 -.454E+02 0.486E+03   -.662E+02 0.444E+02 -.478E+03   -.145E+01 0.101E+01 -.766E+01   0.226E-02 0.119E-02 -.141E-02
   -.702E+01 0.697E+02 0.469E+03   0.702E+01 -.677E+02 -.462E+03   0.372E-01 -.202E+01 -.661E+01   0.144E-02 0.486E-03 0.417E-03
   0.838E+01 0.948E+01 0.431E+03   -.838E+01 -.101E+02 -.426E+03   0.124E-01 0.582E+00 -.529E+01   0.392E-03 0.588E-03 0.604E-03
   -.333E+00 0.932E+01 0.806E+01   0.267E+00 -.923E+01 -.840E+01   0.105E+00 -.759E-01 0.342E+00   0.903E-03 0.322E-03 -.207E-04
   0.358E+00 -.161E+02 0.229E+02   -.337E+00 0.160E+02 -.230E+02   -.582E-02 0.878E-01 0.103E+00   0.412E-03 -.583E-04 0.336E-03
   -.100E+02 0.497E+01 0.246E+02   0.995E+01 -.490E+01 -.246E+02   0.883E-01 -.691E-01 0.213E-02   0.908E-03 0.107E-03 -.582E-03
   0.107E+02 0.220E+01 0.330E+02   -.106E+02 -.225E+01 -.331E+02   -.360E-01 0.714E-01 0.832E-01   0.820E-03 0.182E-03 0.418E-03
   -.917E+01 -.370E+01 -.382E+03   0.919E+01 0.372E+01 0.384E+03   0.191E-01 -.813E-02 -.236E+01   0.279E-03 -.269E-03 -.268E-03
   0.835E+01 -.415E+01 -.386E+03   -.839E+01 0.414E+01 0.388E+03   0.597E-01 0.191E-01 -.236E+01   0.344E-03 -.427E-03 -.132E-03
   -.212E+01 0.626E+01 -.385E+03   0.211E+01 -.629E+01 0.388E+03   0.308E-01 0.391E-01 -.236E+01   0.400E-03 -.340E-03 -.392E-03
   0.167E+01 0.127E+01 -.377E+03   -.170E+01 -.127E+01 0.379E+03   0.608E-01 0.860E-02 -.239E+01   0.205E-03 -.119E-03 -.242E-03
   0.330E+01 0.179E+01 0.344E+03   -.306E+01 -.180E+01 -.347E+03   -.690E+00 -.122E+00 0.254E+01   -.245E-02 -.220E-03 0.837E-03
   -.237E+02 -.161E+00 0.356E+03   0.237E+02 0.238E+00 -.359E+03   0.431E-01 -.159E+00 0.236E+01   0.405E-03 0.172E-03 -.400E-03
   0.233E+02 0.947E+00 0.351E+03   -.233E+02 -.957E+00 -.354E+03   0.672E-02 0.308E-01 0.246E+01   0.388E-03 0.267E-03 0.539E-03
 -----------------------------------------------------------------------------------------------
   -.130E+00 -.169E+00 0.923E+01   -.178E-13 0.168E-13 0.284E-12   0.118E+00 0.159E+00 -.925E+01   0.117E-01 0.266E-02 -.367E-04


 POSITION                                       TOTAL-FORCE (eV/Angst)
 -----------------------------------------------------------------------------------
      0.05351      2.24754      1.33355         0.034411      0.007243      0.003259
      3.95868      2.23697      1.28245         0.026787      0.005183     -0.017404
      2.00241      5.57191      1.34316         0.032113      0.015619     -0.008217
      5.89045      5.59380      1.32224         0.024915      0.015446      0.000600
      1.95475      1.08280      9.88767         0.015853     -0.001739     -0.020853
      5.99493      1.07915      9.83613         0.062733      0.035498     -0.020061
      3.96099      4.57381      9.85185         0.038089      0.025608      0.001181
      0.09209      4.45631      9.79308         0.008664      0.009098      0.011549
      0.05975      0.01777     11.07260         0.040135      0.015070      0.000124
      3.97845     -0.01981     11.07079         0.015721      0.005928     -0.005527
      2.01835      3.36673     11.08535         0.027455     -0.005427     -0.025465
      5.90356      3.33572     11.03477         0.026523      0.019503      0.014571
      1.99978      1.10820      3.45591         0.030554      0.009052      0.004884
      5.87255      1.10502      3.46596         0.023813      0.012038     -0.003917
      3.94136      4.46169      3.47269         0.026277      0.005936     -0.008534
      0.04348      4.47486      3.48607         0.030320      0.012692     -0.004214
      0.40318      2.31653      7.54533        -0.451239     -0.126111      0.102375
      2.14476      5.70061      7.62953        -0.009717     -0.081790     -0.030980
      5.90170      5.61344      7.59812        -0.003408      0.021153      0.006629
 -----------------------------------------------------------------------------------
    total drift:                               -0.000758     -0.007376     -0.022208


--------------------------------------------------------------------------------------------------------



  FREE ENERGIE OF THE ION-ELECTRON SYSTEM (eV)
  ---------------------------------------------------
  free  energy   TOTEN  =      -116.99188278 eV

  energy  without entropy=     -116.91495616  energy(sigma->0) =     -116.95341947

 d Force =-0.1441802E-02[-0.145E-02,-0.143E-02]  d Energy =-0.1439349E-02-0.245E-05
 d Force = 0.2453266E+00[ 0.245E+00, 0.245E+00]  d Ewald  = 0.2453265E+00 0.735E-07


--------------------------------------------------------------------------------------------------------


    POTLOK:  cpu time    0.8241: real time    1.6456


--------------------------------------------------------------------------------------------------------


 NEB: the previous image is higher in energy: F
 NEB: the next image is higher in energy    : T
 NEB: only next energy greater

 NEB: Tangent
 ----------------------------------------------
     -0.07192     -0.01408     -0.00604
     -0.05823     -0.00855      0.03384
     -0.06781     -0.03064      0.01623
     -0.05370     -0.02814     -0.00069
     -0.03684      0.00073      0.04141
     -0.12773     -0.07057      0.03795
     -0.07757     -0.05115     -0.00182
     -0.02387     -0.02077     -0.02297
     -0.08479     -0.03251      0.00026
     -0.03128     -0.01493      0.01053
     -0.06196      0.01131      0.05115
     -0.05797     -0.03962     -0.03150
     -0.06357     -0.01368     -0.00831
     -0.05222     -0.01886      0.00680
     -0.05500     -0.00635      0.01845
     -0.06184     -0.02049      0.00827
      0.88162      0.24356     -0.20146
      0.01434      0.15523      0.06316
      0.00072     -0.04050     -0.01527

 NEB: forces: par spring, perp REAL, dneb     0.020570    0.013334    0.000000
 NEB: distance to prev, next image, angle between     0.552587    0.556701  128.802363
 NEB: projections on to tangent (spring, REAL)     0.020570   -0.509701

 stress matrix after NEB project (eV)
     -4.94975     -0.53844      1.99148
     -0.53844     -6.18456      0.72373
      1.99148      0.72373      0.14466
  FORCES: max atom, RMS     0.017129    0.005624
  FORCE total and by dimension    0.024514    0.016259
  Stress total and by dimension    8.504653    6.184557
 Quasi-Newton relaxation of ions (Broydens 2nd method)
  g(Force)  = 0.129E-03   g(Stress)= 0.000E+00

 retain information from N=  2 steps
 eigenvalues of (default step * inverse Hessian matrix)
  average eigenvalue of G=   7.2069
 eigenvalue spectrum of G is  7.2069  7.2069


--------------------------------------------------------------------------------------------------------


  
 reached required accuracy - stopping structural energy minimisation
     LOOP+:  cpu time  341.0192: real time  685.3673
    4ORBIT:  cpu time    0.0000: real time    0.0000



 total charge     

# of ion       s       p       d       f       tot
--------------------------------------------------
    1        2.183   6.374   0.942   0.044   9.542
    2        2.183   6.369   0.943   0.043   9.538
    3        2.183   6.369   0.934   0.043   9.529
    4        2.183   6.370   0.936   0.043   9.531
    5        2.198   6.367   0.989   0.042   9.597
    6        2.195   6.327   0.974   0.038   9.534
    7        2.197   6.350   0.986   0.042   9.575
    8        2.183   6.358   0.943   0.042   9.526
    9        0.865   1.386   0.000   0.000   2.250
   10        0.864   1.377   0.000   0.000   2.241
   11        0.864   1.371   0.000   0.000   2.235
   12        0.864   1.368   0.000   0.000   2.232
   13        1.507   2.833   0.019   0.000   4.359
   14        1.507   2.833   0.019   0.000   4.359
   15        1.507   2.833   0.019   0.000   4.359
   16        1.508   2.833   0.019   0.000   4.359
   17        1.507   2.818   0.015   0.000   4.340
   18        1.508   2.829   0.017   0.000   4.354
   19        1.506   2.826   0.015   0.000   4.346
--------------------------------------------------
tot         31.513  76.190   7.768   0.336 115.807




 magnetization (x)

# of ion       s       p       d       f       tot
--------------------------------------------------
    1        0.000  -0.000  -0.000  -0.000   0.000
    2        0.000   0.000  -0.000  -0.000  -0.000
    3        0.000  -0.000  -0.000   0.000  -0.000
    4       -0.000  -0.000  -0.000  -0.000  -0.000
    5       -0.000   0.000   0.000   0.000   0.000
    6        0.000   0.000  -0.000  -0.000   0.000
    7        0.000   0.000  -0.000  -0.000  -0.000
    8       -0.000   0.000  -0.000  -0.000  -0.000
    9       -0.000  -0.000   0.000   0.000  -0.000
   10        0.000   0.000   0.000   0.000   0.000
   11       -0.000  -0.000   0.000   0.000  -0.000
   12        0.000  -0.000   0.000   0.000  -0.000
   13        0.000  -0.000  -0.000   0.000  -0.000
   14       -0.000  -0.000  -0.000   0.000  -0.000
   15       -0.000  -0.000  -0.000   0.000  -0.000
   16        0.000  -0.000   0.000   0.000   0.000
   17       -0.000  -0.000   0.000   0.000  -0.000
   18       -0.000  -0.000  -0.000   0.000  -0.000
   19       -0.000  -0.000   0.000   0.000  -0.000
--------------------------------------------------
tot          0.000  -0.000  -0.000  -0.000  -0.000



 total amount of memory used by VASP MPI-rank0   265330. kBytes
=======================================================================

   base      :      30000. kBytes
   nonlr-proj:       9751. kBytes
   fftplans  :      25286. kBytes
   grid      :      66476. kBytes
   one-center:        420. kBytes
   wavefun   :     133397. kBytes

  
  
 General timing and accounting informations for this job:
 ========================================================
  
                  Total CPU time used (sec):    12733.643
                            User time (sec):    10318.563
                          System time (sec):     2415.080
                         Elapsed time (sec):    25604.852
  
                   Maximum memory used (kb):      479120.
                   Average memory used (kb):           0.
  
                          Minor page faults:       760066
                          Major page faults:            0
                 Voluntary context switches:         8641
